ITEM: TIMESTEP
2228
ITEM: NUMBER OF ATOMS
257
ITEM: BOX BOUNDS pp pp pp
0.0000000000000000e+00 1.4440000000000000e+01
0.0000000000000000e+00 1.4440000000000000e+01
0.0000000000000000e+00 1.4440000000000000e+01
ITEM: ATOMS id xs ys zs c_3 c_4 c_5 
8 0.250423 0.12417 0.124474 -3.54054 0.000251147 12 
19 0.125357 0.24851 0.124962 -3.53794 0.000247044 12 
20 0.000208316 0.373426 0.124752 -3.53854 4.89753e-05 12 
24 0.248584 0.373763 0.124221 -3.53619 7.37614e-05 12 
34 0.125484 0.12365 0.248956 -3.53863 0.000229476 12 
36 0.00145551 0.123414 0.373959 -3.54106 0.000312361 12 
40 0.249152 0.123491 0.374017 -3.53779 9.87959e-05 12 
50 0.125161 0.373178 0.249477 -3.5374 1.73685e-05 12 
51 0.125113 0.248259 0.37475 -3.53937 1.79239e-05 12 
52 0.000887721 0.372776 0.373451 -3.54052 2.46801e-05 12 
53 0.24953 0.248959 0.249616 -3.53841 4.39574e-05 12 
56 0.248421 0.373605 0.374663 -3.54098 3.88931e-05 12 
165 0.246659 0.499448 0.24754 -3.52913 0.000157823 12 
82 0.124133 0.373853 0.499899 -3.54528 3.38782e-05 12 
85 0.249122 0.247671 0.499705 -3.53794 9.16555e-05 12 
129 0.00131575 0.499581 0.00125636 -3.5309 0.000326018 12 
131 0.124164 0.498999 0.124085 -3.52572 0.000155523 12 
133 0.247349 0.499182 0.00082529 -3.5318 0.000261911 12 
161 0.0018748 0.499222 0.246845 -3.52805 0.000156938 12 
66 0.125151 0.123455 0.499882 -3.53683 5.81306e-05 12 
4 0.00114842 0.123764 0.1245 -3.53866 4.6111e-05 12 
49 0.000643769 0.248482 0.249206 -3.53836 6.27531e-05 12 
163 0.123926 0.498888 0.374622 -3.54863 3.01434e-05 12 
197 0.24963 0.499679 0.498985 -3.55533 0.00011402 12 
81 0.00101607 0.247768 0.499917 -3.53627 0.0001268 12 
2 0.125757 0.124206 6.14934e-05 -3.54009 0.000203143 12 
21 0.249772 0.249467 0.000184658 -3.53728 0.000130677 12 
73 0.500493 0.000521773 0.499723 -3.54381 0.000153617 12 
10 0.625324 0.12372 0.00144241 -3.53043 0.000147167 12 
12 0.499406 0.125131 0.124522 -3.53711 0.000189344 12 
22 0.374026 0.374325 0.0011436 -3.53688 0.000146008 12 
23 0.37418 0.249788 0.124789 -3.53591 0.00014498 12 
25 0.499337 0.249463 0.000828181 -3.53825 5.59868e-05 12 
27 0.624763 0.250532 0.125029 -3.55064 0.000419134 12 
28 0.49958 0.375778 0.124896 -3.54305 2.77328e-05 12 
38 0.374521 0.123933 0.249155 -3.53677 0.000326906 12 
42 0.625657 0.123283 0.247157 -3.52908 0.000228121 12 
44 0.499083 0.123912 0.373736 -3.5415 0.000159635 12 
54 0.373007 0.374619 0.248333 -3.53843 0.000199106 12 
55 0.373201 0.248082 0.373524 -3.53848 3.7138e-05 12 
57 0.498286 0.249708 0.248315 -3.53789 2.54265e-05 12 
58 0.624998 0.375192 0.250341 -3.54378 0.000285719 12 
59 0.624946 0.24395 0.367386 -3.4862 1.47589e-05 12 
60 0.497332 0.373465 0.373133 -3.55298 8.2873e-05 12 
74 0.62544 0.126507 0.498977 -3.55675 1.56923e-05 12 
89 0.495258 0.246638 0.499623 -3.51282 0.000361108 12 
90 0.623905 0.353724 0.48984 -3.33107 0.000309384 11 
70 0.373465 0.123054 0.499608 -3.53599 0.000164768 12 
43 0.625729 0.00124092 0.374628 -3.54908 0.000144438 12 
11 0.625736 0.000986271 0.123998 -3.52602 7.16076e-05 12 
41 0.499786 0.000466284 0.248743 -3.53683 9.04299e-05 12 
9 0.499556 0.000675353 5.0977e-05 -3.53943 1.55769e-05 12 
86 0.371383 0.371331 0.499703 -3.51424 0.00070534 12 
77 0.750826 0.00119234 0.499941 -3.54485 7.86206e-07 12 
32 0.749656 0.37533 0.12408 -3.54328 0.000126648 12 
46 0.876368 0.124147 0.249171 -3.53815 7.67178e-05 12 
48 0.752135 0.124241 0.373522 -3.54067 7.47375e-05 12 
61 0.751389 0.25002 0.248305 -3.53672 0.000159916 12 
62 0.87523 0.373816 0.248149 -3.53681 0.000147048 12 
63 0.876556 0.248293 0.373481 -3.53731 0.000111833 12 
16 0.751433 0.124996 0.124975 -3.53831 0.000106205 12 
64 0.751783 0.373343 0.374491 -3.55232 0.000584327 12 
173 0.749969 0.499866 0.25021 -3.54415 0.000110247 12 
29 0.750387 0.249147 0.000744064 -3.53759 0.000234605 12 
94 0.878562 0.370943 0.499652 -3.51444 0.000122901 12 
93 0.753906 0.246775 0.499764 -3.51652 2.25225e-05 12 
30 0.875822 0.37429 0.000727938 -3.53742 0.000142818 12 
31 0.875956 0.24908 0.12398 -3.53551 0.00011808 12 
193 0.998883 0.499475 0.498827 -3.55706 6.13888e-05 12 
68 0.000708466 0.124339 0.625594 -3.54094 0.000268597 12 
72 0.24953 0.124379 0.625456 -3.54026 0.000271693 12 
83 0.125021 0.248741 0.624988 -3.53964 3.20196e-05 12 
84 0.000490762 0.374022 0.625323 -3.53369 0.000172703 12 
88 0.248906 0.374224 0.624313 -3.53633 0.000435452 12 
98 0.125564 0.123871 0.750837 -3.53849 0.000192147 12 
100 0.000645949 0.124255 0.875503 -3.54035 0.000200665 12 
104 0.250188 0.124632 0.875647 -3.53814 6.25502e-05 12 
113 0.0012142 0.248749 0.750293 -3.53787 1.1348e-05 12 
114 0.124774 0.375013 0.749635 -3.54183 0.000103753 12 
115 0.125407 0.248898 0.874867 -3.53616 0.000325599 12 
116 0.00127889 0.373568 0.875037 -3.54086 0.000277773 12 
117 0.248988 0.249337 0.749804 -3.53607 0.000145538 12 
120 0.248293 0.374094 0.875257 -3.54156 1.31163e-05 12 
18 0.124191 0.373469 0.99987 -3.53703 0.000148541 12 
17 0.000734425 0.248742 0.999868 -3.53788 4.22231e-06 12 
229 0.249609 0.499881 0.750441 -3.55107 0.000131046 12 
195 0.123983 0.499272 0.624613 -3.54365 0.000255466 12 
107 0.624754 0.000697044 0.875221 -3.54773 0.000578709 12 
75 0.625842 0.0011784 0.624428 -3.54226 0.000139744 12 
103 0.375083 0.00022716 0.874975 -3.53804 0.000357208 12 
71 0.373954 6.51148e-05 0.625608 -3.5384 0.000222711 12 
76 0.498889 0.123903 0.62496 -3.53651 8.37733e-05 12 
231 0.36924 0.499595 0.880053 -3.49853 3.86008e-05 12 
87 0.374555 0.249294 0.625027 -3.53488 0.000168162 12 
203 0.62515 0.499677 0.691575 -2.92519 0.00413672 10 
91 0.624136 0.248381 0.62536 -3.52739 0.000261659 12 
92 0.505026 0.38088 0.623951 -3.64468 0.000111379 13 
102 0.373381 0.124482 0.75037 -3.53624 0.000125988 12 
105 0.500096 0.000599506 0.750272 -3.54172 4.0006e-05 12 
106 0.624696 0.125662 0.750121 -3.54942 0.000187767 12 
108 0.499073 0.124986 0.874979 -3.54118 0.000247364 12 
118 0.372172 0.372569 0.749336 -3.52469 0.000281714 12 
119 0.373473 0.249546 0.875395 -3.53857 0.000396623 12 
121 0.496683 0.248397 0.749742 -3.52351 0.00106491 12 
122 0.624328 0.358398 0.760591 -3.36501 0.00207462 12 
123 0.625592 0.244478 0.880223 -3.4935 0.000329356 12 
124 0.497639 0.373446 0.877324 -3.54097 0.000547909 12 
26 0.624133 0.375453 0.999239 -3.54586 0.000132036 12 
6 0.374976 0.124989 0.999974 -3.53873 2.28797e-05 12 
13 0.75147 0.000984062 0.999851 -3.53736 5.52239e-05 12 
79 0.87641 3.12154e-05 0.625234 -3.5404 4.17998e-05 12 
14 0.87596 0.124344 0.999956 -3.53809 2.00857e-05 12 
110 0.876464 0.124165 0.750223 -3.53789 6.20342e-05 12 
112 0.751297 0.123746 0.874871 -3.54082 0.000264054 12 
95 0.874941 0.250145 0.625484 -3.53304 0.000191119 12 
239 0.880398 0.499212 0.880244 -3.49438 0.000278815 12 
80 0.751067 0.12469 0.625394 -3.53366 0.000265315 12 
78 0.877062 0.123944 0.50006 -3.53687 0.000176453 12 
96 0.743984 0.381014 0.623262 -3.64597 4.80931e-05 13 
125 0.752383 0.248381 0.749834 -3.5247 4.53191e-05 12 
109 0.749899 0.000349563 0.749507 -3.54171 0.0001395 12 
128 0.751079 0.373853 0.877492 -3.54068 0.000547869 12 
126 0.876785 0.37239 0.749624 -3.52422 8.86245e-05 12 
127 0.875525 0.249368 0.875772 -3.54267 0.000159276 12 
136 0.24915 0.624662 0.12419 -3.53844 7.9407e-05 12 
147 0.125058 0.749611 0.124935 -3.53638 0.000187091 12 
152 0.250342 0.874629 0.124485 -3.53791 0.000123183 12 
162 0.12455 0.624994 0.248688 -3.53666 5.81075e-05 12 
164 0.00140247 0.625683 0.373728 -3.54033 0.00020036 12 
168 0.247455 0.625662 0.37364 -3.54008 6.19268e-06 12 
177 0.000868833 0.750116 0.249169 -3.53679 0.000340287 12 
178 0.125603 0.874375 0.248818 -3.53813 0.0001368 12 
179 0.125205 0.750371 0.374309 -3.53774 6.8218e-05 12 
180 0.00157934 0.875782 0.373944 -3.53817 0.00024712 12 
181 0.249724 0.749777 0.248884 -3.53754 1.67373e-05 12 
184 0.249935 0.874895 0.374164 -3.53954 2.36421e-06 12 
194 0.124676 0.624444 0.499694 -3.54335 0.000193979 12 
213 0.248151 0.751489 0.499995 -3.53701 3.50392e-05 12 
209 0.00219221 0.751674 0.499614 -3.53601 9.3049e-05 12 
210 0.125374 0.875856 0.499756 -3.53534 0.000115364 12 
130 0.124424 0.625362 0.000142552 -3.5394 9.89765e-05 12 
33 0.00125114 0.999267 0.248957 -3.53855 0.000199198 12 
149 0.24929 0.750242 8.47591e-05 -3.53761 9.53585e-05 12 
69 0.249133 0.999667 0.49981 -3.53566 0.000156141 12 
65 0.00160856 0.999791 0.499886 -3.53685 7.10477e-05 12 
148 0.000483436 0.874247 0.124504 -3.54039 0.000175594 12 
3 0.12569 0.998947 0.123918 -3.54081 0.000215391 12 
37 0.250311 0.999233 0.248896 -3.5383 6.94599e-05 12 
35 0.126022 0.998952 0.373627 -3.53593 0.000508555 12 
134 0.373752 0.625718 0.000530345 -3.53708 0.000160556 12 
135 0.37375 0.500105 0.124403 -3.54886 4.21893e-05 12 
140 0.499729 0.625216 0.124263 -3.54318 5.28582e-05 12 
151 0.374577 0.750341 0.123994 -3.53682 5.21222e-05 12 
153 0.499298 0.751322 0.000450804 -3.53746 0.000267858 12 
154 0.625857 0.877524 0.000731646 -3.53219 0.000328347 12 
155 0.624945 0.751145 0.124299 -3.54906 0.000115779 12 
156 0.500209 0.875958 0.123985 -3.53865 0.000218918 12 
166 0.373903 0.625871 0.248128 -3.53744 0.000197005 12 
170 0.624657 0.625954 0.249319 -3.54365 6.97181e-05 12 
172 0.498114 0.627226 0.372879 -3.55076 0.000629676 12 
182 0.37502 0.875269 0.24876 -3.53798 2.36121e-05 12 
183 0.373435 0.751401 0.372831 -3.53926 0.000265538 12 
185 0.499057 0.751339 0.247981 -3.53755 0.000265736 12 
186 0.625377 0.87853 0.247342 -3.52829 0.000246278 12 
187 0.624385 0.757623 0.367669 -3.48132 7.83517e-05 12 
188 0.499008 0.877635 0.373618 -3.53982 1.85539e-05 12 
202 0.623985 0.648406 0.489809 -3.31596 0.000579266 10 
214 0.373441 0.876809 0.499722 -3.5361 3.98629e-05 12 
139 0.624668 0.500368 0.124439 -3.5396 2.16298e-05 12 
218 0.625198 0.875453 0.498941 -3.55594 0.000147742 12 
169 0.498888 0.500218 0.249475 -3.54389 5.79614e-05 12 
201 0.47762 0.500887 0.489841 -3.32536 0.00115338 11 
7 0.375188 0.999903 0.12473 -3.53608 0.000165543 12 
171 0.624334 0.500665 0.373289 -3.57511 0.00223135 13 
167 0.367664 0.500645 0.368083 -3.48377 0.000148078 12 
39 0.374307 0.999838 0.374338 -3.53781 6.73134e-05 12 
198 0.370663 0.629669 0.499367 -3.51453 0.000105426 12 
217 0.495342 0.754857 0.49931 -3.51092 2.78266e-05 12 
132 0.999866 0.625339 0.124228 -3.53729 0.00028855 12 
176 0.751309 0.62777 0.372886 -3.55485 4.54746e-05 12 
157 0.750608 0.750983 0.000741345 -3.53676 0.000285257 12 
205 0.77223 0.501023 0.489414 -3.32252 0.000683172 10 
189 0.750355 0.752005 0.248178 -3.53846 0.000144165 12 
190 0.875855 0.87539 0.249515 -3.53878 6.82125e-05 12 
191 0.876971 0.751771 0.373458 -3.53885 1.86571e-05 12 
192 0.751296 0.876806 0.374723 -3.5408 0.000123795 12 
45 0.751566 0.999873 0.249379 -3.53756 0.0001048 12 
206 0.878682 0.629975 0.49933 -3.51221 0.000341591 12 
222 0.877278 0.876063 0.499626 -3.53804 8.02913e-05 12 
144 0.749189 0.625369 0.124696 -3.54286 3.11887e-05 12 
143 0.874526 0.500225 0.124663 -3.55063 0.000246895 12 
142 0.875437 0.625822 0.000539897 -3.53778 3.27894e-05 12 
159 0.875064 0.75063 0.124514 -3.5362 0.000152443 12 
160 0.751038 0.876431 0.124049 -3.53629 0.000189049 12 
174 0.875339 0.626482 0.248096 -3.53817 2.40244e-05 12 
15 0.876357 0.999585 0.124829 -3.53775 0.000185939 12 
47 0.876634 0.999903 0.37486 -3.53924 6.92574e-05 12 
175 0.881487 0.500153 0.367092 -3.48176 3.40896e-05 12 
221 0.753686 0.753862 0.499409 -3.51228 0.000465119 12 
196 0.00117628 0.625889 0.625012 -3.53652 0.000224619 12 
200 0.248121 0.625308 0.625064 -3.53547 0.000145624 12 
211 0.124966 0.750729 0.625621 -3.53775 9.09901e-05 12 
212 0.000704346 0.875489 0.625414 -3.53996 0.000276837 12 
216 0.249653 0.875311 0.625497 -3.54125 0.000144696 12 
226 0.124567 0.625032 0.750262 -3.54197 0.00010421 12 
227 0.124156 0.500289 0.875027 -3.54761 0.000312173 12 
232 0.248787 0.625546 0.875592 -3.54153 0.000386032 12 
241 0.000551301 0.751602 0.750233 -3.53603 0.000132353 12 
242 0.125456 0.875283 0.750946 -3.53672 4.14447e-05 12 
243 0.12498 0.749787 0.874909 -3.53865 0.000272858 12 
244 0.000207536 0.874748 0.875648 -3.538 5.76139e-05 12 
245 0.249512 0.75069 0.750033 -3.53641 0.000105071 12 
248 0.250283 0.874682 0.875388 -3.53837 4.45859e-05 12 
101 0.249681 0.999467 0.751023 -3.53646 4.03893e-05 12 
97 0.00105263 0.999339 0.750914 -3.53794 8.5571e-05 12 
67 0.125185 0.99983 0.625727 -3.53962 0.00024016 12 
1 0.000450514 0.999072 0.999993 -3.5402 8.68159e-05 12 
99 0.125661 0.999222 0.875937 -3.53996 0.000131837 12 
145 0.000134838 0.75003 0.999745 -3.53889 7.16059e-05 12 
146 0.12525 0.874193 0.999902 -3.53985 0.000261427 12 
5 0.25081 0.99946 0.999954 -3.53971 0.000235033 12 
137 0.49944 0.500714 0.999254 -3.54507 0.000121395 12 
204 0.505926 0.619225 0.623898 -3.64539 0.00052364 13 
215 0.375025 0.750328 0.624629 -3.53645 0.000268132 12 
219 0.624265 0.753032 0.6255 -3.52457 0.000440791 12 
220 0.499666 0.877313 0.625037 -3.53576 8.03625e-05 12 
230 0.372313 0.627862 0.749522 -3.52301 0.000144843 12 
234 0.624612 0.642027 0.759538 -3.37411 0.000854664 12 
257 0.62501 0.501277 0.541597 -2.84965 0.00177834 10 
236 0.497702 0.627064 0.876452 -3.54074 0.000476633 12 
246 0.374472 0.875705 0.750212 -3.53619 7.64376e-05 12 
247 0.374132 0.750844 0.875497 -3.53701 0.000104152 12 
249 0.497013 0.752491 0.74948 -3.5233 7.01931e-05 12 
250 0.625075 0.875515 0.750372 -3.5509 0.000157969 12 
251 0.625253 0.75594 0.879691 -3.49912 0.000285117 12 
252 0.499251 0.876306 0.87548 -3.54125 0.000390487 12 
138 0.624372 0.625792 0.998949 -3.54572 7.31916e-05 12 
199 0.372205 0.500666 0.625206 -3.52489 0.000776124 12 
235 0.624604 0.500587 0.871862 -3.61037 0.000340605 13 
233 0.482803 0.500237 0.759546 -3.37457 0.000638799 12 
150 0.374758 0.875586 0.999948 -3.53692 6.24755e-05 12 
228 0.999905 0.625936 0.874988 -3.54166 0.000204067 12 
207 0.876801 0.500766 0.625166 -3.52637 0.000492242 12 
253 0.752336 0.75264 0.749106 -3.52497 0.000334063 12 
111 0.875989 0.999871 0.874605 -3.53647 0.000296841 12 
225 0.999177 0.500253 0.750288 -3.54971 9.60867e-05 12 
158 0.875293 0.875183 0.999945 -3.53754 0.000241593 12 
254 0.875615 0.875864 0.749756 -3.53572 0.000346847 12 
141 0.74962 0.500893 0.999237 -3.54551 7.74132e-05 12 
255 0.875399 0.751571 0.87502 -3.53724 0.000390453 12 
208 0.744107 0.620106 0.623543 -3.64596 0.000100466 13 
223 0.875615 0.750651 0.624747 -3.53539 0.000418108 12 
224 0.750693 0.87635 0.624168 -3.53679 0.000323473 12 
238 0.876771 0.628369 0.749488 -3.52272 0.0017222 12 
240 0.751613 0.627224 0.876906 -3.54091 0.000377149 12 
256 0.751029 0.876824 0.874991 -3.54142 8.58724e-05 12 
237 0.766852 0.500556 0.760104 -3.36815 0.00268399 12 
ITEM: TIMESTEP
2229
ITEM: NUMBER OF ATOMS
257
ITEM: BOX BOUNDS pp pp pp
0.0000000000000000e+00 1.4440000000000000e+01
0.0000000000000000e+00 1.4440000000000000e+01
0.0000000000000000e+00 1.4440000000000000e+01
ITEM: ATOMS id xs ys zs c_3 c_4 c_5 
8 0.250166 0.124307 0.124549 -3.53897 0.000251147 12 
19 0.125046 0.248715 0.124562 -3.53853 0.000247044 12 
20 0.000283607 0.373625 0.124602 -3.53705 4.89753e-05 12 
24 0.248993 0.374149 0.124531 -3.53756 7.37614e-05 12 
34 0.125626 0.123886 0.249012 -3.53985 0.000229476 12 
36 0.0010912 0.123783 0.374265 -3.53946 0.000312361 12 
40 0.249554 0.123781 0.374153 -3.53863 9.87959e-05 12 
50 0.124684 0.373428 0.249363 -3.53876 1.73685e-05 12 
51 0.125032 0.248365 0.374577 -3.53892 1.79239e-05 12 
52 0.00093847 0.373249 0.373711 -3.54083 2.46801e-05 12 
53 0.249538 0.248676 0.249313 -3.53775 4.39574e-05 12 
56 0.248318 0.373476 0.374368 -3.54174 3.88931e-05 12 
165 0.246946 0.499609 0.247494 -3.52815 0.000157823 12 
82 0.124459 0.37413 0.499662 -3.54451 3.38782e-05 12 
85 0.24879 0.248025 0.499782 -3.53758 9.16555e-05 12 
129 0.001378 0.499684 0.00151207 -3.53128 0.000326018 12 
131 0.124537 0.499338 0.124078 -3.52554 0.000155523 12 
133 0.247483 0.499548 0.00122973 -3.53079 0.000261911 12 
161 0.00202743 0.499496 0.247129 -3.52769 0.000156938 12 
66 0.125206 0.123721 0.499864 -3.53726 5.81306e-05 12 
4 0.000701764 0.124126 0.124298 -3.53871 4.6111e-05 12 
49 0.000683797 0.248527 0.24899 -3.53771 6.27531e-05 12 
163 0.124271 0.499208 0.374324 -3.54948 3.01434e-05 12 
197 0.249879 0.499896 0.499239 -3.55565 0.00011402 12 
81 0.00112529 0.247959 0.499867 -3.53632 0.0001268 12 
2 0.125469 0.124137 -0.000140203 -3.53863 0.000203143 12 
21 0.249514 0.249258 2.22733e-05 -3.53807 0.000130677 12 
73 0.500092 0.000604375 0.499636 -3.54402 0.000153617 12 
10 0.625217 0.123691 0.00160253 -3.53073 0.000147167 12 
12 0.499555 0.125051 0.124698 -3.53765 0.000189344 12 
22 0.373788 0.374346 0.00116939 -3.53758 0.000146008 12 
23 0.374234 0.249508 0.124783 -3.53551 0.00014498 12 
25 0.49922 0.249499 0.00112969 -3.53801 5.59868e-05 12 
27 0.624926 0.250319 0.124859 -3.54889 0.000419134 12 
28 0.49977 0.375512 0.124724 -3.54364 2.77328e-05 12 
38 0.374328 0.124405 0.249184 -3.53748 0.000326906 12 
42 0.625388 0.123168 0.247316 -3.52867 0.000228121 12 
44 0.499019 0.123857 0.373738 -3.54065 0.000159635 12 
54 0.373229 0.374275 0.248473 -3.53784 0.000199106 12 
55 0.373437 0.248522 0.373531 -3.53871 3.7138e-05 12 
57 0.49869 0.249479 0.248369 -3.53833 2.54265e-05 12 
58 0.624785 0.374959 0.250065 -3.54461 0.000285719 12 
59 0.624988 0.243779 0.367974 -3.48475 1.47589e-05 12 
60 0.497379 0.3737 0.372992 -3.55107 8.2873e-05 12 
74 0.625116 0.126504 0.499096 -3.55586 1.56923e-05 12 
89 0.49566 0.246574 0.499501 -3.51388 0.000361108 12 
90 0.624189 0.353788 0.489668 -3.32982 0.000309384 11 
70 0.373439 0.123216 0.499659 -3.53653 0.000164768 12 
43 0.625619 0.000866172 0.374395 -3.54942 0.000144438 12 
11 0.625536 0.000592447 0.124084 -3.52577 7.16076e-05 12 
41 0.499779 0.000544161 0.24899 -3.53789 9.04299e-05 12 
9 0.499648 0.000541695 -0.000167691 -3.53901 1.55769e-05 12 
86 0.371592 0.371172 0.499731 -3.51485 0.00070534 12 
77 0.750823 0.000685597 0.499639 -3.54461 7.86206e-07 12 
32 0.749607 0.375379 0.124102 -3.54233 0.000126648 12 
46 0.876401 0.124171 0.24898 -3.53758 7.67178e-05 12 
48 0.751575 0.124103 0.373755 -3.54142 7.47375e-05 12 
61 0.751281 0.249479 0.248179 -3.53854 0.000159916 12 
62 0.875683 0.373717 0.248072 -3.53833 0.000147048 12 
63 0.876589 0.248415 0.373615 -3.53963 0.000111833 12 
16 0.751224 0.124785 0.124751 -3.53731 0.000106205 12 
64 0.751637 0.37346 0.373548 -3.55292 0.000584327 12 
173 0.750097 0.500227 0.250016 -3.54478 0.000110247 12 
29 0.750799 0.249161 0.00126311 -3.53883 0.000234605 12 
94 0.878209 0.371177 0.499753 -3.51465 0.000122901 12 
93 0.753662 0.247079 0.499829 -3.51625 2.25225e-05 12 
30 0.875808 0.374035 0.00122783 -3.53852 0.000142818 12 
31 0.875849 0.249116 0.124441 -3.53371 0.00011808 12 
193 0.998704 0.499772 0.4991 -3.55617 6.13888e-05 12 
68 0.000586082 0.124481 0.625631 -3.54113 0.000268597 12 
72 0.249621 0.124217 0.625267 -3.54047 0.000271693 12 
83 0.12498 0.249043 0.625064 -3.53865 3.20196e-05 12 
84 0.000765845 0.374284 0.625016 -3.53625 0.000172703 12 
88 0.248329 0.374479 0.624549 -3.53565 0.000435452 12 
98 0.125291 0.124046 0.750641 -3.53756 0.000192147 12 
100 0.000771637 0.12427 0.875369 -3.53922 0.000200665 12 
104 0.249821 0.124404 0.875459 -3.53876 6.25502e-05 12 
113 0.000797394 0.248738 0.750229 -3.53735 1.1348e-05 12 
114 0.124815 0.374891 0.749883 -3.54179 0.000103753 12 
115 0.125255 0.248892 0.875018 -3.53732 0.000325599 12 
116 0.000877245 0.373697 0.874981 -3.54162 0.000277773 12 
117 0.248875 0.249124 0.749856 -3.53793 0.000145538 12 
120 0.248481 0.374083 0.875293 -3.54129 1.31163e-05 12 
18 0.124498 0.373678 0.999816 -3.53827 0.000148541 12 
17 0.000633493 0.248817 0.999907 -3.5381 4.22231e-06 12 
229 0.249543 0.499976 0.750329 -3.55022 0.000131046 12 
195 0.124512 0.499762 0.624603 -3.54252 0.000255466 12 
107 0.625125 0.000776145 0.874992 -3.54767 0.000578709 12 
75 0.625116 0.000685831 0.624523 -3.54292 0.000139744 12 
103 0.374723 0.000123648 0.875088 -3.53862 0.000357208 12 
71 0.374297 7.60561e-05 0.625252 -3.53694 0.000222711 12 
76 0.499417 0.123857 0.62497 -3.53541 8.37733e-05 12 
231 0.369062 0.499877 0.880013 -3.49834 3.86008e-05 12 
87 0.374691 0.249947 0.624936 -3.53614 0.000168162 12 
203 0.624954 0.49985 0.692058 -2.91373 0.00413672 10 
91 0.624634 0.248156 0.625603 -3.52707 0.000261659 12 
92 0.50515 0.381299 0.623589 -3.64584 0.000111379 13 
102 0.373938 0.124344 0.750134 -3.53745 0.000125988 12 
105 0.500079 0.000496845 0.749992 -3.54165 4.0006e-05 12 
106 0.624933 0.125779 0.75036 -3.54974 0.000187767 12 
108 0.499051 0.124736 0.875323 -3.54089 0.000247364 12 
118 0.372423 0.372447 0.749481 -3.52402 0.000281714 12 
119 0.37375 0.249597 0.875677 -3.53933 0.000396623 12 
121 0.496614 0.248127 0.749732 -3.5221 0.00106491 12 
122 0.624516 0.358 0.760305 -3.36569 0.00207462 12 
123 0.624969 0.244505 0.8802 -3.49512 0.000329356 12 
124 0.497726 0.373462 0.876756 -3.54083 0.000547909 12 
26 0.624608 0.375481 0.999095 -3.54654 0.000132036 12 
6 0.374664 0.124849 1.00005 -3.53847 2.28797e-05 12 
13 0.751224 0.000557022 0.999814 -3.53857 5.52239e-05 12 
79 0.875917 5.95843e-05 0.625049 -3.53846 4.17998e-05 12 
14 0.876044 0.124426 0.999916 -3.53835 2.00857e-05 12 
110 0.876263 0.124437 0.750156 -3.53754 6.20342e-05 12 
112 0.751141 0.124156 0.87491 -3.54155 0.000264054 12 
95 0.875105 0.249948 0.62526 -3.53485 0.000191119 12 
239 0.880351 0.499872 0.880122 -3.49629 0.000278815 12 
80 0.750763 0.124503 0.625116 -3.53613 0.000265315 12 
78 0.876967 0.123892 0.499954 -3.53697 0.000176453 12 
96 0.743924 0.381161 0.623361 -3.64637 4.80931e-05 13 
125 0.752625 0.248259 0.749866 -3.52246 4.53191e-05 12 
109 0.750179 0.000305536 0.7498 -3.54174 0.0001395 12 
128 0.7515 0.373605 0.877075 -3.54263 0.000547869 12 
126 0.876804 0.372275 0.749935 -3.52268 8.86245e-05 12 
127 0.87591 0.249077 0.87558 -3.53978 0.000159276 12 
136 0.249116 0.62509 0.12427 -3.53747 7.9407e-05 12 
147 0.125053 0.749953 0.124268 -3.53846 0.000187091 12 
152 0.250098 0.874728 0.124402 -3.53731 0.000123183 12 
162 0.124511 0.624957 0.248972 -3.53786 5.81075e-05 12 
164 0.00133256 0.625904 0.373655 -3.54029 0.00020036 12 
168 0.248028 0.625863 0.373857 -3.54106 6.19268e-06 12 
177 0.00046628 0.750437 0.249119 -3.53754 0.000340287 12 
178 0.125672 0.874684 0.248948 -3.53775 0.0001368 12 
179 0.125092 0.750637 0.374153 -3.53803 6.8218e-05 12 
180 0.00117275 0.87533 0.374084 -3.53912 0.00024712 12 
181 0.249543 0.75018 0.248721 -3.53847 1.67373e-05 12 
184 0.249736 0.875118 0.373896 -3.53978 2.36421e-06 12 
194 0.124556 0.624744 0.499726 -3.54391 0.000193979 12 
213 0.248568 0.751392 0.499833 -3.53726 3.50392e-05 12 
209 0.00185467 0.751539 0.499635 -3.53628 9.3049e-05 12 
210 0.125349 0.875643 0.500028 -3.53641 0.000115364 12 
130 0.124471 0.625268 -0.000157847 -3.53922 9.89765e-05 12 
33 0.000929007 0.99924 0.249001 -3.53976 0.000199198 12 
149 0.249644 0.750096 3.06236e-05 -3.53716 9.53585e-05 12 
69 0.249302 0.999739 0.500007 -3.53581 0.000156141 12 
65 0.00125372 0.999829 0.499879 -3.53758 7.10477e-05 12 
148 0.000454535 0.874574 0.124476 -3.53922 0.000175594 12 
3 0.125649 0.999101 0.124221 -3.54065 0.000215391 12 
37 0.250067 0.999204 0.24891 -3.53771 6.94599e-05 12 
35 0.125588 0.999372 0.374018 -3.53933 0.000508555 12 
134 0.373762 0.625589 0.000753818 -3.53749 0.000160556 12 
135 0.374032 0.499959 0.124416 -3.54888 4.21893e-05 12 
140 0.499873 0.625195 0.124386 -3.54356 5.28582e-05 12 
151 0.374525 0.750447 0.124275 -3.53546 5.21222e-05 12 
153 0.499436 0.751173 0.000665377 -3.53772 0.000267858 12 
154 0.625403 0.877545 0.00113588 -3.53128 0.000328347 12 
155 0.624968 0.750963 0.124363 -3.54898 0.000115779 12 
156 0.499839 0.875919 0.124153 -3.53747 0.000218918 12 
166 0.373714 0.625811 0.247999 -3.53811 0.000197005 12 
170 0.62465 0.625952 0.249743 -3.54412 6.97181e-05 12 
172 0.497834 0.627307 0.372879 -3.55085 0.000629676 12 
182 0.374664 0.875475 0.248726 -3.53857 2.36121e-05 12 
183 0.373675 0.751258 0.373558 -3.53932 0.000265538 12 
185 0.499131 0.7514 0.24785 -3.53762 0.000265736 12 
186 0.625271 0.87821 0.247344 -3.52708 0.000246278 12 
187 0.624651 0.757639 0.367507 -3.48191 7.83517e-05 12 
188 0.499007 0.877077 0.37371 -3.54075 1.85539e-05 12 
202 0.624354 0.647792 0.489475 -3.32351 0.000579266 11 
214 0.373403 0.876604 0.499846 -3.537 3.98629e-05 12 
139 0.624729 0.500288 0.124861 -3.53927 2.16298e-05 12 
218 0.62503 0.875191 0.499133 -3.5564 0.000147742 12 
169 0.499023 0.500322 0.249889 -3.54426 5.79614e-05 12 
201 0.478057 0.50047 0.489662 -3.33039 0.00115338 12 
7 0.374959 0.999867 0.124306 -3.53882 0.000165543 12 
171 0.624538 0.500579 0.373944 -3.57955 0.00223135 13 
167 0.367741 0.500306 0.367926 -3.48452 0.000148078 12 
39 0.374231 0.999986 0.374173 -3.53799 6.73134e-05 12 
198 0.3711 0.62925 0.499358 -3.51383 0.000105426 12 
217 0.495641 0.754278 0.499335 -3.51177 2.78266e-05 12 
132 0.999959 0.625409 0.124479 -3.53788 0.00028855 12 
176 0.751237 0.627571 0.372961 -3.55224 4.54746e-05 12 
157 0.750568 0.751186 0.000837792 -3.5378 0.000285257 12 
205 0.771896 0.500775 0.489336 -3.32188 0.000683172 10 
189 0.750749 0.751781 0.248331 -3.5377 0.000144165 12 
190 0.876137 0.875428 0.249312 -3.53755 6.82125e-05 12 
191 0.876501 0.751548 0.373394 -3.53877 1.86571e-05 12 
192 0.751413 0.876908 0.374223 -3.54125 0.000123795 12 
45 0.751422 1.00033 0.249384 -3.53831 0.0001048 12 
206 0.878662 0.62949 0.499389 -3.51262 0.000341591 12 
222 0.876991 0.876391 0.499752 -3.53749 8.02913e-05 12 
144 0.74946 0.625222 0.12462 -3.54375 3.11887e-05 12 
143 0.874744 0.499977 0.124582 -3.54956 0.000246895 12 
142 0.875472 0.625808 0.000856123 -3.53773 3.27894e-05 12 
159 0.875378 0.750665 0.124607 -3.53535 0.000152443 12 
160 0.750772 0.876001 0.124397 -3.53788 0.000189049 12 
174 0.875493 0.626274 0.248237 -3.53819 2.40244e-05 12 
15 0.876118 0.999883 0.124566 -3.53834 0.000185939 12 
47 0.876513 0.999957 0.374532 -3.53842 6.92574e-05 12 
175 0.881633 0.500047 0.367621 -3.48232 3.40896e-05 12 
221 0.753965 0.753665 0.49962 -3.5143 0.000465119 12 
196 0.00114833 0.625571 0.624805 -3.5354 0.000224619 12 
200 0.248072 0.625283 0.624828 -3.5354 0.000145624 12 
211 0.124975 0.750657 0.625267 -3.53714 9.09901e-05 12 
212 0.000833679 0.875347 0.625225 -3.54045 0.000276837 12 
216 0.249837 0.875163 0.625372 -3.54004 0.000144696 12 
226 0.124629 0.624878 0.750038 -3.54238 0.00010421 12 
227 0.12425 0.499875 0.874976 -3.54754 0.000312173 12 
232 0.248904 0.625626 0.875309 -3.54163 0.000386032 12 
241 0.000719194 0.751044 0.750042 -3.53723 0.000132353 12 
242 0.125263 0.875123 0.750667 -3.53712 4.14447e-05 12 
243 0.124938 0.750242 0.874981 -3.53866 0.000272858 12 
244 0.000523551 0.875109 0.875296 -3.53921 5.76139e-05 12 
245 0.249297 0.750784 0.750006 -3.53713 0.000105071 12 
248 0.250019 0.87492 0.875403 -3.53922 4.45859e-05 12 
101 0.24977 0.999719 0.750664 -3.53772 4.03893e-05 12 
97 0.000960607 0.999674 0.750618 -3.53811 8.5571e-05 12 
67 0.125364 0.999655 0.625684 -3.53947 0.00024016 12 
1 0.000565519 0.999474 0.999832 -3.53912 8.68159e-05 12 
99 0.125369 0.999547 0.875929 -3.53872 0.000131837 12 
145 0.000104477 0.750245 0.999972 -3.53811 7.16059e-05 12 
146 0.125319 0.874491 0.999927 -3.53906 0.000261427 12 
5 0.250344 0.999609 0.999865 -3.53889 0.000235033 12 
137 0.499609 0.500386 0.999018 -3.54657 0.000121395 12 
204 0.505496 0.619567 0.6235 -3.64674 0.00052364 13 
215 0.374924 0.75018 0.625034 -3.53713 0.000268132 12 
219 0.624541 0.753107 0.625291 -3.52647 0.000440791 12 
220 0.499685 0.877177 0.62491 -3.53511 8.03625e-05 12 
230 0.372548 0.627823 0.74957 -3.52366 0.000144843 12 
234 0.624877 0.642046 0.759624 -3.37037 0.000854664 12 
257 0.625264 0.500894 0.542488 -2.84399 0.00177834 10 
236 0.49788 0.62707 0.876534 -3.54145 0.000476633 12 
246 0.374256 0.875846 0.750008 -3.53715 7.64376e-05 12 
247 0.373984 0.75091 0.875763 -3.53811 0.000104152 12 
249 0.497094 0.752514 0.749601 -3.5241 7.01931e-05 12 
250 0.624958 0.875639 0.75028 -3.54976 0.000157969 12 
251 0.62504 0.755991 0.879744 -3.49859 0.000285117 12 
252 0.499364 0.876185 0.875271 -3.54169 0.000390487 12 
138 0.624626 0.62548 0.99885 -3.54667 7.31916e-05 12 
199 0.37216 0.500413 0.625222 -3.52661 0.000776124 12 
235 0.624479 0.500541 0.871438 -3.60929 0.000340605 13 
233 0.482792 0.500039 0.759709 -3.36911 0.000638799 12 
150 0.374854 0.875285 0.999975 -3.53755 6.24755e-05 12 
228 1.00028 0.625966 0.875232 -3.5413 0.000204067 12 
207 0.877052 0.500366 0.62538 -3.52662 0.000492242 12 
253 0.752487 0.75256 0.749241 -3.52437 0.000334063 12 
111 0.875962 0.999819 0.874904 -3.53777 0.000296841 12 
225 0.999252 0.499971 0.750389 -3.5503 9.60867e-05 12 
158 0.875587 0.875431 0.999869 -3.53804 0.000241593 12 
254 0.8758 0.87613 0.749668 -3.53786 0.000346847 12 
141 0.749492 0.500386 0.999011 -3.54625 7.74132e-05 12 
255 0.875357 0.751167 0.875518 -3.53901 0.000390453 12 
208 0.743858 0.619959 0.623361 -3.647 0.000100466 13 
223 0.875118 0.750337 0.624771 -3.53556 0.000418108 12 
224 0.750529 0.876736 0.624476 -3.5354 0.000323473 12 
238 0.87684 0.62837 0.749474 -3.5222 0.0017222 12 
240 0.751626 0.627209 0.876473 -3.54065 0.000377149 12 
256 0.750849 0.876569 0.875101 -3.54132 8.58724e-05 12 
237 0.767032 0.500384 0.759959 -3.36706 0.00268399 12 
ITEM: TIMESTEP
2230
ITEM: NUMBER OF ATOMS
257
ITEM: BOX BOUNDS pp pp pp
0.0000000000000000e+00 1.4440000000000000e+01
0.0000000000000000e+00 1.4440000000000000e+01
0.0000000000000000e+00 1.4440000000000000e+01
ITEM: ATOMS id xs ys zs c_3 c_4 c_5 
8 0.250046 0.124265 0.124453 -3.53903 0.000251147 12 
19 0.125126 0.24883 0.124536 -3.53806 0.000247044 12 
20 0.000412416 0.373745 0.124582 -3.53755 4.89753e-05 12 
24 0.248939 0.373983 0.124582 -3.53722 7.37614e-05 12 
34 0.125389 0.123879 0.249078 -3.53917 0.000229476 12 
36 0.00106454 0.123844 0.374165 -3.5396 0.000312361 12 
40 0.249511 0.123848 0.374221 -3.53937 9.87959e-05 12 
50 0.124793 0.373443 0.249265 -3.538 1.73685e-05 12 
51 0.124991 0.248428 0.374481 -3.53872 1.79239e-05 12 
52 0.000995804 0.373258 0.37382 -3.541 2.46801e-05 12 
53 0.249369 0.248912 0.249267 -3.53824 4.39574e-05 12 