ITEM: TIMESTEP
43
ITEM: NUMBER OF ATOMS
863
ITEM: BOX BOUNDS pp pp pp
0.0000000000000000e+00 2.1660000000000000e+01
0.0000000000000000e+00 2.1660000000000000e+01
0.0000000000000000e+00 2.1660000000000000e+01
ITEM: ATOMS id xs ys zs c_3 c_4 c_5 
1 0 0 1.87462e-17 -3.54018 0 12 
2 0.0833469 0.0833469 1.0903e-17 -3.54018 0 12 
3 0.0833469 4.99417e-17 0.0833469 -3.54018 0 12 
4 0 0.0833469 0.0833469 -3.54018 0 12 
5 0.166688 4.08902e-17 1.21905e-18 -3.54018 0 12 
6 0.166691 0.083351 0.083351 -3.54018 0 12 
7 1.71876e-17 0.166688 1.0452e-17 -3.54018 0 12 
9 0.083351 0.166691 0.083351 -3.54018 0 12 
11 0.166692 0.166692 0 -3.54017 0 12 
13 3.38944e-17 2.3065e-17 0.166688 -3.54018 0 12 
14 0.083351 0.083351 0.166691 -3.54018 0 12 
17 0.166692 3.2143e-17 0.166692 -3.54017 0 12 
19 0 0.166692 0.166692 -3.54017 0 12 
23 0.166706 0.166706 0.166706 -3.54016 0 12 
25 0.250025 0.0833512 8.64853e-18 -3.54019 0 12 
26 0.250025 2.87421e-17 0.0833512 -3.54019 0 12 
27 0.333354 5.98554e-17 0 -3.54022 0 12 
28 0.333355 0.0833587 0.0833587 -3.54019 0 12 
30 0.250031 0.166701 0.0833634 -3.54016 0 12 
31 0.333353 0.166694 0 -3.54017 0 12 
33 0.250031 0.0833634 0.166701 -3.54016 0 12 
35 0.333353 4.74747e-17 0.166694 -3.54017 0 12 
39 0.333371 0.16673 0.16673 -3.54016 0 12 
41 0.416678 0.083355 0 -3.54023 0 12 
42 0.416678 7.68426e-17 0.083355 -3.54023 0 12 
43 0.5 5.46852e-17 2.26284e-17 -3.54033 0 12 
44 0.583322 0.083355 0 -3.54023 0 12 
45 0.583322 7.29798e-17 0.083355 -3.54023 0 12 
46 0.5 0.0833673 0.0833673 -3.54025 0 12 
48 0.41668 0.166707 0.0833753 -3.54016 0 12 
49 0.5 0.166686 0 -3.54004 0 12 
51 0.58332 0.166707 0.0833753 -3.54016 0 12 
53 0.41668 0.0833753 0.166707 -3.54016 0 12 
55 0.5 3.8243e-17 0.166686 -3.54004 0 12 
56 0.58332 0.0833753 0.166707 -3.54016 0 12 
61 0.5 0.166757 0.166757 -3.54042 0 12 
65 0.666646 1.94367e-17 4.17248e-18 -3.54022 0 12 
66 0.749975 0.0833512 9.77069e-18 -3.54019 0 12 
67 0.749975 0 0.0833512 -3.54019 0 12 
68 0.666645 0.0833587 0.0833587 -3.54019 0 12 
69 0.666647 0.166694 3.07837e-17 -3.54017 0 12 
71 0.749969 0.166701 0.0833634 -3.54016 0 12 
73 0.666647 4.10784e-17 0.166694 -3.54017 0 12 
74 0.749969 0.0833634 0.166701 -3.54016 0 12 
77 0.666629 0.16673 0.16673 -3.54016 0 12 
81 0.833312 3.70761e-17 0 -3.54018 0 12 
82 0.916653 0.0833469 4.79197e-18 -3.54018 0 12 
83 0.916653 1.06498e-17 0.0833469 -3.54018 0 12 
84 0.833309 0.083351 0.083351 -3.54018 0 12 
85 0.833308 0.166692 0 -3.54017 0 12 
87 0.916649 0.166691 0.083351 -3.54018 0 12 
89 0.833308 4.17733e-17 0.166692 -3.54017 0 12 
90 0.916649 0.083351 0.166691 -3.54018 0 12 
93 0.833294 0.166706 0.166706 -3.54016 0 12 
8 0.0833512 0.250025 0 -3.54019 0 12 
10 2.37865e-18 0.250025 0.0833512 -3.54019 0 12 
12 0.166701 0.250031 0.0833634 -3.54016 0 12 
20 0.0833634 0.250031 0.166701 -3.54016 0 12 
97 2.60614e-19 0.333354 0 -3.54022 0 12 
98 0.083355 0.416678 0 -3.54023 0 12 
99 0.0833587 0.333355 0.0833587 -3.54019 0 12 
100 3.64046e-17 0.416678 0.083355 -3.54023 0 12 
101 0.166694 0.333353 0 -3.54017 0 12 
102 0.166707 0.41668 0.0833753 -3.54016 0 12 
103 1.67415e-17 0.333353 0.166694 -3.54017 0 12 
104 0.0833753 0.41668 0.166707 -3.54016 0 12 
107 0.16673 0.333371 0.16673 -3.54016 0 12 
29 0.250025 0.250025 0 -3.54015 0 12 
32 0.333358 0.250034 0.0833761 -3.54013 0 12 
37 0.250059 0.250059 0.166738 -3.54014 0 12 
109 0.250009 0.41667 0 -3.54 0 12 
110 0.250034 0.333358 0.0833761 -3.54013 0 12 
111 0.333337 0.333337 1.85625e-17 -3.53999 0 12 
112 0.33334 0.41667 0.0833393 -3.53998 0 12 
113 0.250083 0.4167 0.166761 -3.54024 0 12 
115 0.333394 0.333394 0.166757 -3.54024 0 12 
47 0.41667 0.250009 6.89498e-18 -3.54 0 12 
50 0.58333 0.250009 0 -3.54 0 12 
52 0.5 0.250021 0.0833552 -3.53997 0 12 
59 0.4167 0.250083 0.166761 -3.54024 0 12 
62 0.5833 0.250083 0.166761 -3.54024 0 12 
117 0.416665 0.416665 1.97276e-17 -3.54014 0 12 
118 0.41667 0.33334 0.0833393 -3.53998 0 12 
119 0.5 0.333332 1.05661e-17 -3.54011 0 12 
120 0.583335 0.416665 3.54909e-17 -3.54014 0 12 
121 0.58333 0.33334 0.0833393 -3.53998 0 12 
122 0.5 0.416667 0.083325 -3.54017 0 12 
123 0.416674 0.416674 0.166661 -3.5399 0 12 
125 0.5 0.333362 0.166684 -3.53966 0 12 
126 0.583326 0.416674 0.166661 -3.5399 0 12 
128 0.5 0.416678 0.249975 -3.53892 0 12 
70 0.749975 0.250025 1.05663e-17 -3.54015 0 12 
72 0.666642 0.250034 0.0833761 -3.54013 0 12 
78 0.749941 0.250059 0.166738 -3.54014 0 12 
129 0.666663 0.333337 3.80949e-17 -3.53999 0 12 
130 0.749991 0.41667 4.85578e-17 -3.54 0 12 
131 0.749966 0.333358 0.0833761 -3.54013 0 12 
132 0.66666 0.41667 0.0833393 -3.53998 0 12 
133 0.666606 0.333394 0.166757 -3.54024 0 12 
134 0.749917 0.4167 0.166761 -3.54024 0 12 
86 0.916649 0.250025 0 -3.54019 0 12 
88 0.833299 0.250031 0.0833634 -3.54016 0 12 
94 0.916637 0.250031 0.166701 -3.54016 0 12 
137 0.833306 0.333353 5.91356e-17 -3.54017 0 12 
138 0.916645 0.416678 2.68297e-17 -3.54023 0 12 
139 0.916641 0.333355 0.0833587 -3.54019 0 12 
140 0.833293 0.41668 0.0833753 -3.54016 0 12 
141 0.83327 0.333371 0.16673 -3.54016 0 12 
142 0.916625 0.41668 0.166707 -3.54016 0 12 
15 0.0833512 3.85754e-17 0.250025 -3.54019 0 12 
16 5.78271e-18 0.0833512 0.250025 -3.54019 0 12 
18 0.166701 0.0833634 0.250031 -3.54016 0 12 
21 0.0833634 0.166701 0.250031 -3.54016 0 12 
145 9.08921e-18 3.71293e-17 0.333354 -3.54022 0 12 
146 0.0833587 0.0833587 0.333355 -3.54019 0 12 
147 0.083355 1.70952e-17 0.416678 -3.54023 0 12 
148 1.52963e-17 0.083355 0.416678 -3.54023 0 12 
149 0.166694 1.1907e-17 0.333353 -3.54017 0 12 
150 0.166707 0.0833753 0.41668 -3.54016 0 12 
151 0 0.166694 0.333353 -3.54017 0 12 
153 0.0833753 0.166707 0.41668 -3.54016 0 12 
155 0.16673 0.16673 0.333371 -3.54016 0 12 
34 0.250025 3.87273e-17 0.250025 -3.54015 0 12 
36 0.333358 0.0833761 0.250034 -3.54013 0 12 
38 0.250059 0.166738 0.250059 -3.54014 0 12 
157 0.250034 0.0833761 0.333358 -3.54013 0 12 
158 0.250009 8.53976e-18 0.41667 -3.54 0 12 
159 0.333337 2.10897e-17 0.333337 -3.53999 0 12 
160 0.33334 0.0833393 0.41667 -3.53998 0 12 
162 0.250083 0.166761 0.4167 -3.54024 0 12 
163 0.333394 0.166757 0.333394 -3.54024 0 12 
54 0.41667 4.38144e-17 0.250009 -3.54 0 12 
57 0.58333 4.79531e-17 0.250009 -3.54 0 12 
58 0.5 0.0833552 0.250021 -3.53997 0 12 
60 0.4167 0.166761 0.250083 -3.54024 0 12 
63 0.5833 0.166761 0.250083 -3.54024 0 12 
165 0.41667 0.0833393 0.33334 -3.53998 0 12 
166 0.416665 2.46071e-17 0.416665 -3.54014 0 12 
167 0.5 4.06554e-17 0.333332 -3.54011 0 12 
168 0.58333 0.0833393 0.33334 -3.53998 0 12 
169 0.583335 4.9693e-17 0.416665 -3.54014 0 12 
170 0.5 0.083325 0.416667 -3.54017 0 12 
172 0.416674 0.166661 0.416674 -3.5399 0 12 
173 0.5 0.166684 0.333362 -3.53966 0 12 
175 0.583326 0.166661 0.416674 -3.5399 0 12 
176 0.5 0.249975 0.416678 -3.53892 0 12 
75 0.749975 2.99239e-17 0.250025 -3.54015 0 12 
76 0.666642 0.0833761 0.250034 -3.54013 0 12 
79 0.749941 0.166738 0.250059 -3.54014 0 12 
177 0.666663 6.25088e-17 0.333337 -3.53999 0 12 
178 0.749966 0.0833761 0.333358 -3.54013 0 12 
179 0.749991 0 0.41667 -3.54 0 12 
180 0.66666 0.0833393 0.41667 -3.53998 0 12 
181 0.666606 0.166757 0.333394 -3.54024 0 12 
183 0.749917 0.166761 0.4167 -3.54024 0 12 
91 0.916649 5.8593e-17 0.250025 -3.54019 0 12 
92 0.833299 0.0833634 0.250031 -3.54016 0 12 
95 0.916637 0.166701 0.250031 -3.54016 0 12 
185 0.833306 0 0.333353 -3.54017 0 12 
186 0.916641 0.0833587 0.333355 -3.54019 0 12 
187 0.916645 0 0.416678 -3.54023 0 12 
188 0.833293 0.0833753 0.41668 -3.54016 0 12 
189 0.83327 0.16673 0.333371 -3.54016 0 12 
191 0.916625 0.166707 0.41668 -3.54016 0 12 
22 1.83674e-18 0.250025 0.250025 -3.54015 0 12 
24 0.166738 0.250059 0.250059 -3.54014 0 12 
105 0.0833761 0.333358 0.250034 -3.54013 0 12 
106 2.85836e-17 0.41667 0.250009 -3.54 0 12 
108 0.166761 0.4167 0.250083 -3.54024 0 12 
152 0.0833761 0.250034 0.333358 -3.54013 0 12 
154 4.55658e-17 0.250009 0.41667 -3.54 0 12 
156 0.166761 0.250083 0.4167 -3.54024 0 12 
193 8.87953e-18 0.333337 0.333337 -3.53999 0 12 
194 0.0833393 0.41667 0.33334 -3.53998 0 12 
195 0.0833393 0.33334 0.41667 -3.53998 0 12 
196 2.17137e-17 0.416665 0.416665 -3.54014 0 12 
197 0.166757 0.333394 0.333394 -3.54024 0 12 
198 0.166661 0.416674 0.416674 -3.5399 0 12 
40 0.333422 0.250121 0.250121 -3.54019 0 12 
114 0.250121 0.333422 0.250121 -3.54019 0 12 
116 0.333488 0.416759 0.250184 -3.5404 0 12 
161 0.250121 0.250121 0.333422 -3.54019 0 12 
164 0.333488 0.250184 0.416759 -3.5404 0 12 
199 0.250184 0.416759 0.333488 -3.5404 0 12 
200 0.250184 0.333488 0.416759 -3.5404 0 12 
201 0.333537 0.333537 0.333537 -3.54035 0 12 
202 0.333684 0.416928 0.416928 -3.53802 0 12 
64 0.5 0.250207 0.250207 -3.54093 0 12 
124 0.416759 0.333488 0.250184 -3.5404 0 12 
127 0.583241 0.333488 0.250184 -3.5404 0 12 
171 0.416759 0.250184 0.333488 -3.5404 0 12 
174 0.583241 0.250184 0.333488 -3.5404 0 12 
203 0.416928 0.416928 0.333684 -3.53802 0 12 
204 0.416928 0.333684 0.416928 -3.53802 0 12 
205 0.5 0.333834 0.333834 -3.542 0 12 
206 0.583072 0.416928 0.333684 -3.53802 0 12 
207 0.583072 0.333684 0.416928 -3.53802 0 12 
208 0.5 0.417738 0.417738 -3.44991 0 11 
80 0.666578 0.250121 0.250121 -3.54019 0 12 
135 0.749879 0.333422 0.250121 -3.54019 0 12 
136 0.666512 0.416759 0.250184 -3.5404 0 12 
182 0.749879 0.250121 0.333422 -3.54019 0 12 
184 0.666512 0.250184 0.416759 -3.5404 0 12 
209 0.666463 0.333537 0.333537 -3.54035 0 12 
210 0.749816 0.416759 0.333488 -3.5404 0 12 
211 0.749816 0.333488 0.416759 -3.5404 0 12 
212 0.666316 0.416928 0.416928 -3.53802 0 12 
96 0.833262 0.250059 0.250059 -3.54014 0 12 
143 0.916624 0.333358 0.250034 -3.54013 0 12 
144 0.833239 0.4167 0.250083 -3.54024 0 12 
190 0.916624 0.250034 0.333358 -3.54013 0 12 
192 0.833239 0.250083 0.4167 -3.54024 0 12 
213 0.833243 0.333394 0.333394 -3.54024 0 12 
214 0.916661 0.41667 0.33334 -3.53998 0 12 
215 0.916661 0.33334 0.41667 -3.53998 0 12 
216 0.833339 0.416674 0.416674 -3.5399 0 12 
217 1.15679e-17 0 0.5 -3.54033 0 12 
218 0.0833673 0.0833673 0.5 -3.54025 0 12 
219 0.083355 1.00649e-17 0.583322 -3.54023 0 12 
220 0 0.083355 0.583322 -3.54023 0 12 
221 0.166686 2.71769e-17 0.5 -3.54004 0 12 
222 0.166707 0.0833753 0.58332 -3.54016 0 12 
223 3.3744e-17 0.166686 0.5 -3.54004 0 12 
225 0.0833753 0.166707 0.58332 -3.54016 0 12 
227 0.166757 0.166757 0.5 -3.54042 0 12 
229 1.38816e-17 2.15696e-18 0.666646 -3.54022 0 12 
230 0.0833587 0.0833587 0.666645 -3.54019 0 12 
231 0.166694 2.9612e-18 0.666647 -3.54017 0 12 
232 1.99444e-17 0.166694 0.666647 -3.54017 0 12 
234 0.16673 0.16673 0.666629 -3.54016 0 12 
325 0.0833512 0 0.749975 -3.54019 0 12 
326 0 0.0833512 0.749975 -3.54019 0 12 
327 0.166701 0.0833634 0.749969 -3.54016 0 12 
328 0.0833634 0.166701 0.749969 -3.54016 0 12 
235 0.250021 0.0833552 0.5 -3.53997 0 12 
236 0.250009 1.75953e-17 0.58333 -3.54 0 12 
237 0.333332 1.98903e-17 0.5 -3.54011 0 12 
238 0.33334 0.0833393 0.58333 -3.53998 0 12 
240 0.250083 0.166761 0.5833 -3.54024 0 12 
241 0.333362 0.166684 0.5 -3.53966 0 12 
243 0.250034 0.0833761 0.666642 -3.54013 0 12 
244 0.333337 5.87346e-17 0.666663 -3.53999 0 12 
246 0.333394 0.166757 0.666606 -3.54024 0 12 
343 0.250025 1.86172e-18 0.749975 -3.54015 0 12 
344 0.333358 0.0833761 0.749966 -3.54013 0 12 
345 0.250059 0.166738 0.749941 -3.54014 0 12 
247 0.416667 0.083325 0.5 -3.54017 0 12 
248 0.416665 4.97261e-17 0.583335 -3.54014 0 12 
249 0.5 1.68558e-17 0.5 -3.54014 0 12 
250 0.583333 0.083325 0.5 -3.54017 0 12 
251 0.583335 4.9234e-17 0.583335 -3.54014 0 12 
252 0.5 0.083325 0.583333 -3.54017 0 12 
253 0.416678 0.249975 0.5 -3.53892 0 12 
254 0.416674 0.166661 0.583326 -3.5399 0 12 
255 0.5 0.166649 0.5 -3.54056 0 12 
256 0.583322 0.249975 0.5 -3.53892 0 12 
257 0.583326 0.166661 0.583326 -3.5399 0 12 
258 0.5 0.249975 0.583322 -3.53892 0 12 
259 0.41667 0.0833393 0.66666 -3.53998 0 12 
260 0.5 6.4933e-17 0.666668 -3.54011 0 12 
261 0.58333 0.0833393 0.66666 -3.53998 0 12 
263 0.5 0.166684 0.666638 -3.53966 0 12 
355 0.41667 7.89639e-18 0.749991 -3.54 0 12 
356 0.58333 8.52564e-18 0.749991 -3.54 0 12 
357 0.5 0.0833552 0.749979 -3.53997 0 12 
358 0.4167 0.166761 0.749917 -3.54024 0 12 
359 0.5833 0.166761 0.749917 -3.54024 0 12 
265 0.666668 2.66543e-17 0.5 -3.54011 0 12 
266 0.749979 0.0833552 0.5 -3.53997 0 12 
267 0.749991 5.47542e-19 0.58333 -3.54 0 12 
268 0.66666 0.0833393 0.58333 -3.53998 0 12 
269 0.666638 0.166684 0.5 -3.53966 0 12 
271 0.749917 0.166761 0.5833 -3.54024 0 12 
273 0.666663 1.92532e-17 0.666663 -3.53999 0 12 
274 0.749966 0.0833761 0.666642 -3.54013 0 12 
275 0.666606 0.166757 0.666606 -3.54024 0 12 
373 0.749975 2.27129e-17 0.749975 -3.54015 0 12 
374 0.666642 0.0833761 0.749966 -3.54013 0 12 
375 0.749941 0.166738 0.749941 -3.54014 0 12 
277 0.833314 5.38235e-19 0.5 -3.54004 0 12 
278 0.916633 0.0833673 0.5 -3.54025 0 12 
279 0.916645 0 0.583322 -3.54023 0 12 
280 0.833293 0.0833753 0.58332 -3.54016 0 12 
281 0.833243 0.166757 0.5 -3.54042 0 12 
283 0.916625 0.166707 0.58332 -3.54016 0 12 
285 0.833306 0 0.666647 -3.54017 0 12 
286 0.916641 0.0833587 0.666645 -3.54019 0 12 
287 0.83327 0.16673 0.666629 -3.54016 0 12 
385 0.916649 4.5724e-18 0.749975 -3.54019 0 12 
386 0.833299 0.0833634 0.749969 -3.54016 0 12 
387 0.916637 0.166701 0.749969 -3.54016 0 12 
224 0.0833552 0.250021 0.5 -3.53997 0 12 
226 1.38696e-17 0.250009 0.58333 -3.54 0 12 
228 0.166761 0.250083 0.5833 -3.54024 0 12 
233 0.0833761 0.250034 0.666642 -3.54013 0 12 
289 4.06258e-17 0.333332 0.5 -3.54011 0 12 
290 0.083325 0.416667 0.5 -3.54017 0 12 
291 0.0833393 0.33334 0.58333 -3.53998 0 12 
292 3.42972e-17 0.416665 0.583335 -3.54014 0 12 
293 0.166684 0.333362 0.5 -3.53966 0 12 
294 0.166661 0.416674 0.583326 -3.5399 0 12 
295 6.96093e-18 0.333337 0.666663 -3.53999 0 12 
296 0.0833393 0.41667 0.66666 -3.53998 0 12 
297 0.166757 0.333394 0.666606 -3.54024 0 12 
329 1.85873e-17 0.250025 0.749975 -3.54015 0 12 
330 0.166738 0.250059 0.749941 -3.54014 0 12 
397 0.0833761 0.333358 0.749966 -3.54013 0 12 
398 5.41148e-18 0.41667 0.749991 -3.54 0 12 
399 0.166761 0.4167 0.749917 -3.54024 0 12 
239 0.250207 0.250207 0.5 -3.54093 0 12 
242 0.333488 0.250184 0.583241 -3.5404 0 12 
245 0.250121 0.250121 0.666578 -3.54019 0 12 
298 0.249975 0.416678 0.5 -3.53892 0 12 
299 0.250184 0.333488 0.583241 -3.5404 0 12 
300 0.333834 0.333834 0.5 -3.542 0 12 
301 0.333684 0.416928 0.583072 -3.53802 0 12 
302 0.250184 0.416759 0.666512 -3.5404 0 12 
303 0.333537 0.333537 0.666463 -3.54035 0 12 
346 0.333422 0.250121 0.749879 -3.54019 0 12 
406 0.250121 0.333422 0.749879 -3.54019 0 12 
407 0.333488 0.416759 0.749816 -3.5404 0 12 
262 0.416759 0.250184 0.666512 -3.5404 0 12 
264 0.583241 0.250184 0.666512 -3.5404 0 12 
304 0.417738 0.417738 0.5 -3.44991 0 11 
305 0.416928 0.333684 0.583072 -3.53802 0 12 
306 0.5 0.332954 0.5 -3.51678 0 12 
307 0.582262 0.417738 0.5 -3.44991 0 11 
308 0.583072 0.333684 0.583072 -3.53802 0 12 
309 0.5 0.417738 0.582262 -3.44991 0 11 
310 0.416928 0.416928 0.666316 -3.53802 0 12 
311 0.5 0.333834 0.666166 -3.542 0 12 
312 0.583072 0.416928 0.666316 -3.53802 0 12 
360 0.5 0.250207 0.749793 -3.54093 0 12 
412 0.416759 0.333488 0.749816 -3.5404 0 12 
413 0.583241 0.333488 0.749816 -3.5404 0 12 
270 0.749793 0.250207 0.5 -3.54093 0 12 
272 0.666512 0.250184 0.583241 -3.5404 0 12 
276 0.749879 0.250121 0.666578 -3.54019 0 12 
313 0.666166 0.333834 0.5 -3.542 0 12 
314 0.750025 0.416678 0.5 -3.53892 0 12 
315 0.749816 0.333488 0.583241 -3.5404 0 12 
316 0.666316 0.416928 0.583072 -3.53802 0 12 
317 0.666463 0.333537 0.666463 -3.54035 0 12 
318 0.749816 0.416759 0.666512 -3.5404 0 12 
376 0.666578 0.250121 0.749879 -3.54019 0 12 
421 0.749879 0.333422 0.749879 -3.54019 0 12 
422 0.666512 0.416759 0.749816 -3.5404 0 12 
282 0.916645 0.250021 0.5 -3.53997 0 12 
284 0.833239 0.250083 0.5833 -3.54024 0 12 
288 0.916624 0.250034 0.666642 -3.54013 0 12 
319 0.833316 0.333362 0.5 -3.53966 0 12 
320 0.916675 0.416667 0.5 -3.54017 0 12 
321 0.916661 0.33334 0.58333 -3.53998 0 12 
322 0.833339 0.416674 0.583326 -3.5399 0 12 
323 0.833243 0.333394 0.666606 -3.54024 0 12 
324 0.916661 0.41667 0.66666 -3.53998 0 12 
388 0.833262 0.250059 0.749941 -3.54014 0 12 
427 0.916624 0.333358 0.749966 -3.54013 0 12 
428 0.833239 0.4167 0.749917 -3.54024 0 12 
331 3.63893e-18 3.62141e-17 0.833312 -3.54018 0 12 
332 0.083351 0.083351 0.833309 -3.54018 0 12 
333 0.0833469 1.54395e-17 0.916653 -3.54018 0 12 
334 2.51803e-17 0.0833469 0.916653 -3.54018 0 12 
335 0.166692 0 0.833308 -3.54017 0 12 
336 0.166691 0.083351 0.916649 -3.54018 0 12 
337 0 0.166692 0.833308 -3.54017 0 12 
339 0.083351 0.166691 0.916649 -3.54018 0 12 
341 0.166706 0.166706 0.833294 -3.54016 0 12 
347 0.250031 0.0833634 0.833299 -3.54016 0 12 
348 0.250025 0 0.916649 -3.54019 0 12 
349 0.333353 9.62902e-18 0.833306 -3.54017 0 12 
350 0.333355 0.0833587 0.916641 -3.54019 0 12 
352 0.250031 0.166701 0.916637 -3.54016 0 12 
353 0.333371 0.16673 0.83327 -3.54016 0 12 
361 0.41668 0.0833753 0.833293 -3.54016 0 12 
362 0.416678 1.89496e-17 0.916645 -3.54023 0 12 
363 0.5 0 0.833314 -3.54004 0 12 
364 0.58332 0.0833753 0.833293 -3.54016 0 12 
365 0.583322 3.01101e-17 0.916645 -3.54023 0 12 
366 0.5 0.0833673 0.916633 -3.54025 0 12 
368 0.41668 0.166707 0.916625 -3.54016 0 12 
369 0.5 0.166757 0.833243 -3.54042 0 12 
371 0.58332 0.166707 0.916625 -3.54016 0 12 
377 0.666647 5.85312e-17 0.833306 -3.54017 0 12 
378 0.749969 0.0833634 0.833299 -3.54016 0 12 
379 0.749975 1.89165e-17 0.916649 -3.54019 0 12 
380 0.666645 0.0833587 0.916641 -3.54019 0 12 
381 0.666629 0.16673 0.83327 -3.54016 0 12 
383 0.749969 0.166701 0.916637 -3.54016 0 12 
389 0.833308 3.28987e-17 0.833308 -3.54017 0 12 
390 0.916649 0.083351 0.833309 -3.54018 0 12 
391 0.916653 3.95786e-17 0.916653 -3.54018 0 12 
392 0.833309 0.083351 0.916649 -3.54018 0 12 
393 0.833294 0.166706 0.833294 -3.54016 0 12 
395 0.916649 0.166691 0.916649 -3.54018 0 12 
338 0.0833634 0.250031 0.833299 -3.54016 0 12 
340 0 0.250025 0.916649 -3.54019 0 12 
342 0.166701 0.250031 0.916637 -3.54016 0 12 
400 0 0.333353 0.833306 -3.54017 0 12 
401 0.0833753 0.41668 0.833293 -3.54016 0 12 
402 0.0833587 0.333355 0.916641 -3.54019 0 12 
403 0 0.416678 0.916645 -3.54023 0 12 
404 0.16673 0.333371 0.83327 -3.54016 0 12 
405 0.166707 0.41668 0.916625 -3.54016 0 12 
351 0.250059 0.250059 0.833262 -3.54014 0 12 
354 0.333358 0.250034 0.916624 -3.54013 0 12 
408 0.250083 0.4167 0.833239 -3.54024 0 12 
409 0.250034 0.333358 0.916624 -3.54013 0 12 
410 0.333394 0.333394 0.833243 -3.54024 0 12 
411 0.33334 0.41667 0.916661 -3.53998 0 12 
367 0.4167 0.250083 0.833239 -3.54024 0 12 
370 0.5833 0.250083 0.833239 -3.54024 0 12 
372 0.5 0.250021 0.916645 -3.53997 0 12 
414 0.5 0.416678 0.750025 -3.53892 0 12 
415 0.416674 0.416674 0.833339 -3.5399 0 12 
416 0.41667 0.33334 0.916661 -3.53998 0 12 
417 0.5 0.333362 0.833316 -3.53966 0 12 
418 0.583326 0.416674 0.833339 -3.5399 0 12 
419 0.58333 0.33334 0.916661 -3.53998 0 12 
420 0.5 0.416667 0.916675 -3.54017 0 12 
382 0.749941 0.250059 0.833262 -3.54014 0 12 
384 0.666642 0.250034 0.916624 -3.54013 0 12 
423 0.666606 0.333394 0.833243 -3.54024 0 12 
424 0.749917 0.4167 0.833239 -3.54024 0 12 
425 0.749966 0.333358 0.916624 -3.54013 0 12 
426 0.66666 0.41667 0.916661 -3.53998 0 12 
394 0.916637 0.250031 0.833299 -3.54016 0 12 
396 0.833299 0.250031 0.916637 -3.54016 0 12 
429 0.83327 0.333371 0.83327 -3.54016 0 12 
430 0.916625 0.41668 0.833293 -3.54016 0 12 
431 0.916641 0.333355 0.916641 -3.54019 0 12 
432 0.833293 0.41668 0.916625 -3.54016 0 12 
433 0 0.5 8.45089e-18 -3.54033 0 12 
434 0.083355 0.583322 0 -3.54023 0 12 
435 0.0833673 0.5 0.0833673 -3.54025 0 12 
436 0 0.583322 0.083355 -3.54023 0 12 
437 0.166686 0.5 1.8379e-18 -3.54004 0 12 
438 0.166707 0.58332 0.0833753 -3.54016 0 12 
439 5.19621e-18 0.666646 6.03725e-17 -3.54022 0 12 
440 0.0833587 0.666645 0.0833587 -3.54019 0 12 
441 0.166694 0.666647 0 -3.54017 0 12 
442 0 0.5 0.166686 -3.54004 0 12 
443 0.0833753 0.58332 0.166707 -3.54016 0 12 
446 0.166757 0.5 0.166757 -3.54042 0 12 
448 0 0.666647 0.166694 -3.54017 0 12 
450 0.16673 0.666629 0.16673 -3.54016 0 12 
505 0.0833512 0.749975 2.52262e-17 -3.54019 0 12 
506 0 0.749975 0.0833512 -3.54019 0 12 
507 0.166701 0.749969 0.0833634 -3.54016 0 12 
514 0.0833634 0.749969 0.166701 -3.54016 0 12 
451 0.250009 0.58333 0 -3.54 0 12 
452 0.250021 0.5 0.0833552 -3.53997 0 12 
453 0.333332 0.5 2.67509e-17 -3.54011 0 12 
454 0.33334 0.58333 0.0833393 -3.53998 0 12 
455 0.250034 0.666642 0.0833761 -3.54013 0 12 
456 0.333337 0.666663 3.44483e-17 -3.53999 0 12 
457 0.250083 0.5833 0.166761 -3.54024 0 12 
459 0.333362 0.5 0.166684 -3.53966 0 12 
462 0.333394 0.666606 0.166757 -3.54024 0 12 
523 0.250025 0.749975 1.92535e-17 -3.54015 0 12 
524 0.333358 0.749966 0.0833761 -3.54013 0 12 
529 0.250059 0.749941 0.166738 -3.54014 0 12 
463 0.416665 0.583335 4.88212e-17 -3.54014 0 12 
464 0.416667 0.5 0.083325 -3.54017 0 12 
465 0.5 0.5 5.60007e-17 -3.54014 0 12 
466 0.583335 0.583335 5.17935e-17 -3.54014 0 12 
467 0.583333 0.5 0.083325 -3.54017 0 12 
468 0.5 0.583333 0.083325 -3.54017 0 12 
469 0.41667 0.66666 0.0833393 -3.53998 0 12 
470 0.5 0.666668 2.94488e-17 -3.54011 0 12 
471 0.58333 0.66666 0.0833393 -3.53998 0 12 
472 0.416674 0.583326 0.166661 -3.5399 0 12 
473 0.416678 0.5 0.249975 -3.53892 0 12 
474 0.5 0.5 0.166649 -3.54056 0 12 
475 0.583326 0.583326 0.166661 -3.5399 0 12 
476 0.583322 0.5 0.249975 -3.53892 0 12 
477 0.5 0.583322 0.249975 -3.53892 0 12 
479 0.5 0.666638 0.166684 -3.53966 0 12 
535 0.41667 0.749991 3.18985e-17 -3.54 0 12 
536 0.58333 0.749991 6.18864e-17 -3.54 0 12 
537 0.5 0.749979 0.0833552 -3.53997 0 12 
544 0.4167 0.749917 0.166761 -3.54024 0 12 
545 0.5833 0.749917 0.166761 -3.54024 0 12 
481 0.666668 0.5 2.26723e-17 -3.54011 0 12 
482 0.749991 0.58333 3.54727e-18 -3.54 0 12 
483 0.749979 0.5 0.0833552 -3.53997 0 12 
484 0.66666 0.58333 0.0833393 -3.53998 0 12 
485 0.666663 0.666663 8.93789e-17 -3.53999 0 12 
486 0.749966 0.666642 0.0833761 -3.54013 0 12 
487 0.666638 0.5 0.166684 -3.53966 0 12 
488 0.749917 0.5833 0.166761 -3.54024 0 12 
491 0.666606 0.666606 0.166757 -3.54024 0 12 
553 0.749975 0.749975 4.15057e-17 -3.54015 0 12 
554 0.666642 0.749966 0.0833761 -3.54013 0 12 
559 0.749941 0.749941 0.166738 -3.54014 0 12 
493 0.833314 0.5 1.80985e-17 -3.54004 0 12 
494 0.916645 0.583322 3.81131e-17 -3.54023 0 12 
495 0.916633 0.5 0.0833673 -3.54025 0 12 
496 0.833293 0.58332 0.0833753 -3.54016 0 12 
497 0.833306 0.666647 0 -3.54017 0 12 
498 0.916641 0.666645 0.0833587 -3.54019 0 12 
499 0.833243 0.5 0.166757 -3.54042 0 12 
500 0.916625 0.58332 0.166707 -3.54016 0 12 
503 0.83327 0.666629 0.16673 -3.54016 0 12 
565 0.916649 0.749975 3.07585e-17 -3.54019 0 12 
566 0.833299 0.749969 0.0833634 -3.54016 0 12 
571 0.916637 0.749969 0.166701 -3.54016 0 12 
508 8.44563e-19 0.833312 2.5153e-17 -3.54018 0 12 
509 0.0833469 0.916653 4.61488e-18 -3.54018 0 12 
510 0.083351 0.833309 0.083351 -3.54018 0 12 
511 0 0.916653 0.0833469 -3.54018 0 12 
512 0.166692 0.833308 1.68232e-17 -3.54017 0 12 
513 0.166691 0.916649 0.083351 -3.54018 0 12 
517 3.09565e-17 0.833308 0.166692 -3.54017 0 12 
518 0.083351 0.916649 0.166691 -3.54018 0 12 
521 0.166706 0.833294 0.166706 -3.54016 0 12 
525 0.250025 0.916649 0 -3.54019 0 12 
526 0.250031 0.833299 0.0833634 -3.54016 0 12 
527 0.333353 0.833306 4.69717e-17 -3.54017 0 12 
528 0.333355 0.916641 0.0833587 -3.54019 0 12 
531 0.250031 0.916637 0.166701 -3.54016 0 12 
533 0.333371 0.83327 0.16673 -3.54016 0 12 
538 0.416678 0.916645 5.51397e-17 -3.54023 0 12 
539 0.41668 0.833293 0.0833753 -3.54016 0 12 
540 0.5 0.833314 8.41537e-17 -3.54004 0 12 
541 0.583322 0.916645 3.61653e-17 -3.54023 0 12 
542 0.58332 0.833293 0.0833753 -3.54016 0 12 
543 0.5 0.916633 0.0833673 -3.54025 0 12 
547 0.41668 0.916625 0.166707 -3.54016 0 12 
549 0.5 0.833243 0.166757 -3.54042 0 12 
550 0.58332 0.916625 0.166707 -3.54016 0 12 
555 0.666647 0.833306 4.4509e-17 -3.54017 0 12 
556 0.749975 0.916649 1.82551e-17 -3.54019 0 12 
557 0.749969 0.833299 0.0833634 -3.54016 0 12 
558 0.666645 0.916641 0.0833587 -3.54019 0 12 
561 0.666629 0.83327 0.16673 -3.54016 0 12 
562 0.749969 0.916637 0.166701 -3.54016 0 12 
567 0.833308 0.833308 1.23581e-17 -3.54017 0 12 
568 0.916653 0.916653 2.93301e-17 -3.54018 0 12 
569 0.916649 0.833309 0.083351 -3.54018 0 12 
570 0.833309 0.916649 0.083351 -3.54018 0 12 
573 0.833294 0.833294 0.166706 -3.54016 0 12 
574 0.916649 0.916649 0.166691 -3.54018 0 12 
444 0.0833552 0.5 0.250021 -3.53997 0 12 
445 1.65103e-18 0.58333 0.250009 -3.54 0 12 
447 0.166761 0.5833 0.250083 -3.54024 0 12 
449 0.0833761 0.666642 0.250034 -3.54013 0 12 
515 0 0.749975 0.250025 -3.54015 0 12 
516 0.166738 0.749941 0.250059 -3.54014 0 12 
577 1.175e-17 0.5 0.333332 -3.54011 0 12 
578 0.0833393 0.58333 0.33334 -3.53998 0 12 
579 0.083325 0.5 0.416667 -3.54017 0 12 
580 1.69029e-18 0.583335 0.416665 -3.54014 0 12 
581 0.166684 0.5 0.333362 -3.53966 0 12 
582 0.166661 0.583326 0.416674 -3.5399 0 12 
583 0 0.666663 0.333337 -3.53999 0 12 
584 0.0833393 0.66666 0.41667 -3.53998 0 12 
585 0.166757 0.666606 0.333394 -3.54024 0 12 
613 0.0833761 0.749966 0.333358 -3.54013 0 12 
614 9.51261e-18 0.749991 0.41667 -3.54 0 12 
615 0.166761 0.749917 0.4167 -3.54024 0 12 
458 0.250207 0.5 0.250207 -3.54093 0 12 
460 0.333488 0.583241 0.250184 -3.5404 0 12 
461 0.250121 0.666578 0.250121 -3.54019 0 12 
530 0.333422 0.749879 0.250121 -3.54019 0 12 
586 0.250184 0.583241 0.333488 -3.5404 0 12 
587 0.249975 0.5 0.416678 -3.53892 0 12 
588 0.333834 0.5 0.333834 -3.542 0 12 
589 0.333684 0.583072 0.416928 -3.53802 0 12 
590 0.250184 0.666512 0.416759 -3.5404 0 12 
591 0.333537 0.666463 0.333537 -3.54035 0 12 
622 0.250121 0.749879 0.333422 -3.54019 0 12 
623 0.333488 0.749816 0.416759 -3.5404 0 12 
478 0.416759 0.666512 0.250184 -3.5404 0 12 
480 0.583241 0.666512 0.250184 -3.5404 0 12 
546 0.5 0.749793 0.250207 -3.54093 0 12 
592 0.416928 0.583072 0.333684 -3.53802 0 12 
593 0.417738 0.5 0.417738 -3.44991 0 11 
594 0.5 0.5 0.332954 -3.51678 0 12 
595 0.583072 0.583072 0.333684 -3.53802 0 12 
596 0.582262 0.5 0.417738 -3.44991 0 11 
597 0.5 0.582262 0.417738 -3.44991 0 11 
598 0.416928 0.666316 0.416928 -3.53802 0 12 
599 0.5 0.666166 0.333834 -3.542 0 12 
600 0.583072 0.666316 0.416928 -3.53802 0 12 
628 0.416759 0.749816 0.333488 -3.5404 0 12 
629 0.583241 0.749816 0.333488 -3.5404 0 12 
489 0.749793 0.5 0.250207 -3.54093 0 12 
490 0.666512 0.583241 0.250184 -3.5404 0 12 
492 0.749879 0.666578 0.250121 -3.54019 0 12 
560 0.666578 0.749879 0.250121 -3.54019 0 12 
601 0.666166 0.5 0.333834 -3.542 0 12 
602 0.749816 0.583241 0.333488 -3.5404 0 12 
603 0.750025 0.5 0.416678 -3.53892 0 12 
604 0.666316 0.583072 0.416928 -3.53802 0 12 
605 0.666463 0.666463 0.333537 -3.54035 0 12 
606 0.749816 0.666512 0.416759 -3.5404 0 12 
637 0.749879 0.749879 0.333422 -3.54019 0 12 
638 0.666512 0.749816 0.416759 -3.5404 0 12 
501 0.916645 0.5 0.250021 -3.53997 0 12 
502 0.833239 0.5833 0.250083 -3.54024 0 12 
504 0.916624 0.666642 0.250034 -3.54013 0 12 
572 0.833262 0.749941 0.250059 -3.54014 0 12 
607 0.833316 0.5 0.333362 -3.53966 0 12 
608 0.916661 0.58333 0.33334 -3.53998 0 12 
609 0.916675 0.5 0.416667 -3.54017 0 12 
610 0.833339 0.583326 0.416674 -3.5399 0 12 
611 0.833243 0.666606 0.333394 -3.54024 0 12 
612 0.916661 0.66666 0.41667 -3.53998 0 12 
643 0.916624 0.749966 0.333358 -3.54013 0 12 
644 0.833239 0.749917 0.4167 -3.54024 0 12 
519 0.0833634 0.833299 0.250031 -3.54016 0 12 
520 4.19905e-17 0.916649 0.250025 -3.54019 0 12 
522 0.166701 0.916637 0.250031 -3.54016 0 12 
616 3.81617e-17 0.833306 0.333353 -3.54017 0 12 
617 0.0833587 0.916641 0.333355 -3.54019 0 12 
618 0.0833753 0.833293 0.41668 -3.54016 0 12 
619 1.98588e-17 0.916645 0.416678 -3.54023 0 12 
620 0.16673 0.83327 0.333371 -3.54016 0 12 
621 0.166707 0.916625 0.41668 -3.54016 0 12 
532 0.250059 0.833262 0.250059 -3.54014 0 12 
534 0.333358 0.916624 0.250034 -3.54013 0 12 
624 0.250034 0.916624 0.333358 -3.54013 0 12 
625 0.250083 0.833239 0.4167 -3.54024 0 12 
626 0.333394 0.833243 0.333394 -3.54024 0 12 
627 0.33334 0.916661 0.41667 -3.53998 0 12 
548 0.4167 0.833239 0.250083 -3.54024 0 12 
551 0.5833 0.833239 0.250083 -3.54024 0 12 
552 0.5 0.916645 0.250021 -3.53997 0 12 
630 0.5 0.750025 0.416678 -3.53892 0 12 
631 0.41667 0.916661 0.33334 -3.53998 0 12 
632 0.416674 0.833339 0.416674 -3.5399 0 12 
633 0.5 0.833316 0.333362 -3.53966 0 12 
634 0.58333 0.916661 0.33334 -3.53998 0 12 
635 0.583326 0.833339 0.416674 -3.5399 0 12 
636 0.5 0.916675 0.416667 -3.54017 0 12 
563 0.749941 0.833262 0.250059 -3.54014 0 12 
564 0.666642 0.916624 0.250034 -3.54013 0 12 
639 0.666606 0.833243 0.333394 -3.54024 0 12 
640 0.749966 0.916624 0.333358 -3.54013 0 12 
641 0.749917 0.833239 0.4167 -3.54024 0 12 
642 0.66666 0.916661 0.41667 -3.53998 0 12 
575 0.916637 0.833299 0.250031 -3.54016 0 12 
576 0.833299 0.916637 0.250031 -3.54016 0 12 
645 0.83327 0.83327 0.333371 -3.54016 0 12 
646 0.916641 0.916641 0.333355 -3.54019 0 12 
647 0.916625 0.833293 0.41668 -3.54016 0 12 
648 0.833293 0.916625 0.41668 -3.54016 0 12 
649 0 0.5 0.5 -3.54014 0 12 
650 0.083325 0.583333 0.5 -3.54017 0 12 
651 0.083325 0.5 0.583333 -3.54017 0 12 
652 2.86522e-17 0.583335 0.583335 -3.54014 0 12 
653 0.166649 0.5 0.5 -3.54056 0 12 
654 0.166661 0.583326 0.583326 -3.5399 0 12 
655 2.41828e-17 0.666668 0.5 -3.54011 0 12 
656 0.0833393 0.66666 0.58333 -3.53998 0 12 
657 0.166684 0.666638 0.5 -3.53966 0 12 
658 6.51812e-17 0.5 0.666668 -3.54011 0 12 
659 0.0833393 0.58333 0.66666 -3.53998 0 12 
660 0.166684 0.5 0.666638 -3.53966 0 12 
661 2.16341e-18 0.666663 0.666663 -3.53999 0 12 
662 0.166757 0.666606 0.666606 -3.54024 0 12 
703 0.0833552 0.749979 0.5 -3.53997 0 12 
704 0 0.749991 0.58333 -3.54 0 12 
705 0.166761 0.749917 0.5833 -3.54024 0 12 
712 0.0833761 0.749966 0.666642 -3.54013 0 12 
757 0.0833552 0.5 0.749979 -3.53997 0 12 