ITEM: TIMESTEP
0
ITEM: NUMBER OF ATOMS
900
ITEM: BOX BOUNDS pp pp pp
0.0000000000000000e+00 3.0000000000000000e+02
0.0000000000000000e+00 3.0000000000000000e+02
-5.0000000000000000e+00 5.0000000000000000e+00
ITEM: ATOMS id type xs ys zs
1 2 0 0 0.5
2 2 0.0333333 0 0.5
3 2 0.0666667 0 0.5
4 2 0.1 0 0.5
5 2 0.133333 0 0.5
6 2 0.166667 0 0.5
7 2 0.2 0 0.5
8 2 0.233333 0 0.5
9 2 0.266667 0 0.5
10 2 0.3 0 0.5
11 2 0.333333 0 0.5
12 2 0.366667 0 0.5
13 2 0.4 0 0.5
14 2 0.433333 0 0.5
15 2 0.466667 0 0.5
16 2 0 0.0333333 0.5
17 1 0.0333333 0.0333333 0.5
18 2 0.0666667 0.0333333 0.5
19 2 0.1 0.0333333 0.5
20 1 0.133333 0.0333333 0.5
21 2 0.166667 0.0333333 0.5
22 2 0.2 0.0333333 0.5
23 2 0.233333 0.0333333 0.5
24 2 0.266667 0.0333333 0.5
25 2 0.3 0.0333333 0.5
26 2 0.333333 0.0333333 0.5
27 2 0.366667 0.0333333 0.5
28 2 0.4 0.0333333 0.5
29 2 0.433333 0.0333333 0.5
30 2 0.466667 0.0333333 0.5
31 2 0 0.0666667 0.5
32 1 0.0333333 0.0666667 0.5
33 2 0.0666667 0.0666667 0.5
34 2 0.1 0.0666667 0.5
35 2 0.133333 0.0666667 0.5
36 2 0.166667 0.0666667 0.5
37 2 0.2 0.0666667 0.5
38 2 0.233333 0.0666667 0.5
39 2 0.266667 0.0666667 0.5
40 2 0.3 0.0666667 0.5
41 2 0.333333 0.0666667 0.5
42 2 0.366667 0.0666667 0.5
43 2 0.4 0.0666667 0.5
44 2 0.433333 0.0666667 0.5
45 2 0.466667 0.0666667 0.5
46 2 0 0.1 0.5
47 2 0.0333333 0.1 0.5
48 2 0.0666667 0.1 0.5
49 2 0.1 0.1 0.5
50 2 0.133333 0.1 0.5
51 2 0.166667 0.1 0.5
52 2 0.2 0.1 0.5
53 2 0.233333 0.1 0.5
54 2 0.266667 0.1 0.5
55 2 0.3 0.1 0.5
56 2 0.333333 0.1 0.5
57 2 0.366667 0.1 0.5
58 2 0.4 0.1 0.5
59 2 0.433333 0.1 0.5
60 2 0.466667 0.1 0.5
61 2 0 0.133333 0.5
62 2 0.0333333 0.133333 0.5
63 2 0.0666667 0.133333 0.5
64 2 0.1 0.133333 0.5
65 2 0.133333 0.133333 0.5
66 2 0.166667 0.133333 0.5
67 2 0.2 0.133333 0.5
68 2 0.233333 0.133333 0.5
69 2 0.266667 0.133333 0.5
70 2 0.3 0.133333 0.5
71 2 0.333333 0.133333 0.5
72 2 0.366667 0.133333 0.5
73 2 0.4 0.133333 0.5
74 2 0.433333 0.133333 0.5
75 1 0.466667 0.133333 0.5
76 2 0 0.166667 0.5
77 2 0.0333333 0.166667 0.5
78 2 0.0666667 0.166667 0.5
79 2 0.1 0.166667 0.5
80 2 0.133333 0.166667 0.5
81 2 0.166667 0.166667 0.5
82 2 0.2 0.166667 0.5
83 2 0.233333 0.166667 0.5
84 2 0.266667 0.166667 0.5
85 2 0.3 0.166667 0.5
86 2 0.333333 0.166667 0.5
87 2 0.366667 0.166667 0.5
88 2 0.4 0.166667 0.5
89 2 0.433333 0.166667 0.5
90 2 0.466667 0.166667 0.5
91 2 0 0.2 0.5
92 2 0.0333333 0.2 0.5
93 2 0.0666667 0.2 0.5
94 2 0.1 0.2 0.5
95 2 0.133333 0.2 0.5
96 2 0.166667 0.2 0.5
97 2 0.2 0.2 0.5
98 2 0.233333 0.2 0.5
99 2 0.266667 0.2 0.5
100 2 0.3 0.2 0.5
101 2 0.333333 0.2 0.5
102 2 0.366667 0.2 0.5
103 2 0.4 0.2 0.5
104 2 0.433333 0.2 0.5
105 2 0.466667 0.2 0.5
106 2 0 0.233333 0.5
107 2 0.0333333 0.233333 0.5
108 2 0.0666667 0.233333 0.5
109 2 0.1 0.233333 0.5
110 2 0.133333 0.233333 0.5
111 2 0.166667 0.233333 0.5
112 2 0.2 0.233333 0.5
113 2 0.233333 0.233333 0.5
114 2 0.266667 0.233333 0.5
115 2 0.3 0.233333 0.5
116 2 0.333333 0.233333 0.5
117 2 0.366667 0.233333 0.5
118 2 0.4 0.233333 0.5
119 1 0.433333 0.233333 0.5
120 2 0.466667 0.233333 0.5
121 2 0 0.266667 0.5
122 2 0.0333333 0.266667 0.5
123 2 0.0666667 0.266667 0.5
124 2 0.1 0.266667 0.5
125 2 0.133333 0.266667 0.5
126 2 0.166667 0.266667 0.5
127 2 0.2 0.266667 0.5
128 2 0.233333 0.266667 0.5
129 2 0.266667 0.266667 0.5
130 2 0.3 0.266667 0.5
131 2 0.333333 0.266667 0.5
132 2 0.366667 0.266667 0.5
133 2 0.4 0.266667 0.5
134 2 0.433333 0.266667 0.5
135 2 0.466667 0.266667 0.5
136 2 0 0.3 0.5
137 2 0.0333333 0.3 0.5
138 2 0.0666667 0.3 0.5
139 2 0.1 0.3 0.5
140 2 0.133333 0.3 0.5
141 2 0.166667 0.3 0.5
142 2 0.2 0.3 0.5
143 2 0.233333 0.3 0.5
144 2 0.266667 0.3 0.5
145 2 0.3 0.3 0.5
146 2 0.333333 0.3 0.5
147 2 0.366667 0.3 0.5
148 2 0.4 0.3 0.5
149 2 0.433333 0.3 0.5
150 2 0.466667 0.3 0.5
151 2 0 0.333333 0.5
152 2 0.0333333 0.333333 0.5
153 2 0.0666667 0.333333 0.5
154 2 0.1 0.333333 0.5
155 2 0.133333 0.333333 0.5
156 2 0.166667 0.333333 0.5
157 2 0.2 0.333333 0.5
158 2 0.233333 0.333333 0.5
159 2 0.266667 0.333333 0.5
160 2 0.3 0.333333 0.5
161 2 0.333333 0.333333 0.5
162 2 0.366667 0.333333 0.5
163 2 0.4 0.333333 0.5
164 2 0.433333 0.333333 0.5
165 2 0.466667 0.333333 0.5
166 2 0 0.366667 0.5
167 2 0.0333333 0.366667 0.5
168 2 0.0666667 0.366667 0.5
169 2 0.1 0.366667 0.5
170 2 0.133333 0.366667 0.5
171 2 0.166667 0.366667 0.5
172 2 0.2 0.366667 0.5
173 2 0.233333 0.366667 0.5
174 2 0.266667 0.366667 0.5
175 2 0.3 0.366667 0.5
176 1 0.333333 0.366667 0.5
177 2 0.366667 0.366667 0.5
178 2 0.4 0.366667 0.5
179 2 0.433333 0.366667 0.5
180 2 0.466667 0.366667 0.5
181 2 0 0.4 0.5
182 2 0.0333333 0.4 0.5
183 2 0.0666667 0.4 0.5
184 2 0.1 0.4 0.5
185 2 0.133333 0.4 0.5
186 2 0.166667 0.4 0.5
187 2 0.2 0.4 0.5
188 2 0.233333 0.4 0.5
189 2 0.266667 0.4 0.5
190 2 0.3 0.4 0.5
191 2 0.333333 0.4 0.5
192 2 0.366667 0.4 0.5
193 2 0.4 0.4 0.5
194 2 0.433333 0.4 0.5
195 2 0.466667 0.4 0.5
196 2 0 0.433333 0.5
197 2 0.0333333 0.433333 0.5
198 2 0.0666667 0.433333 0.5
199 2 0.1 0.433333 0.5
200 2 0.133333 0.433333 0.5
201 2 0.166667 0.433333 0.5
202 2 0.2 0.433333 0.5
203 2 0.233333 0.433333 0.5
204 2 0.266667 0.433333 0.5
205 2 0.3 0.433333 0.5
206 2 0.333333 0.433333 0.5
207 2 0.366667 0.433333 0.5
208 2 0.4 0.433333 0.5
209 2 0.433333 0.433333 0.5
210 1 0.466667 0.433333 0.5
211 2 0 0.466667 0.5
212 2 0.0333333 0.466667 0.5
213 2 0.0666667 0.466667 0.5
214 2 0.1 0.466667 0.5
215 2 0.133333 0.466667 0.5
216 2 0.166667 0.466667 0.5
217 2 0.2 0.466667 0.5
218 2 0.233333 0.466667 0.5
219 2 0.266667 0.466667 0.5
220 2 0.3 0.466667 0.5
221 2 0.333333 0.466667 0.5
222 2 0.366667 0.466667 0.5
223 2 0.4 0.466667 0.5
224 2 0.433333 0.466667 0.5
225 2 0.466667 0.466667 0.5
226 2 0 0.5 0.5
227 2 0.0333333 0.5 0.5
228 2 0.0666667 0.5 0.5
229 2 0.1 0.5 0.5
230 2 0.133333 0.5 0.5
231 2 0.166667 0.5 0.5
232 2 0.2 0.5 0.5
233 2 0.233333 0.5 0.5
234 2 0.266667 0.5 0.5
235 2 0.3 0.5 0.5
236 2 0.333333 0.5 0.5
237 2 0.366667 0.5 0.5
238 2 0.4 0.5 0.5
239 2 0.433333 0.5 0.5
240 2 0.466667 0.5 0.5
241 2 0 0.533333 0.5
242 2 0.0333333 0.533333 0.5
243 2 0.0666667 0.533333 0.5
244 2 0.1 0.533333 0.5
245 2 0.133333 0.533333 0.5
246 2 0.166667 0.533333 0.5
247 2 0.2 0.533333 0.5
248 2 0.233333 0.533333 0.5
249 2 0.266667 0.533333 0.5
250 2 0.3 0.533333 0.5
251 2 0.333333 0.533333 0.5
252 2 0.366667 0.533333 0.5
253 2 0.4 0.533333 0.5
254 2 0.433333 0.533333 0.5
255 1 0.466667 0.533333 0.5
256 2 0 0.566667 0.5
257 2 0.0333333 0.566667 0.5
258 2 0.0666667 0.566667 0.5
259 2 0.1 0.566667 0.5
260 2 0.133333 0.566667 0.5
261 2 0.166667 0.566667 0.5
262 2 0.2 0.566667 0.5
263 2 0.233333 0.566667 0.5
264 2 0.266667 0.566667 0.5
265 2 0.3 0.566667 0.5
266 2 0.333333 0.566667 0.5
267 2 0.366667 0.566667 0.5
268 2 0.4 0.566667 0.5
269 2 0.433333 0.566667 0.5
270 2 0.466667 0.566667 0.5
271 2 0 0.6 0.5
272 2 0.0333333 0.6 0.5
273 2 0.0666667 0.6 0.5
274 2 0.1 0.6 0.5
275 1 0.133333 0.6 0.5
276 2 0.166667 0.6 0.5
277 2 0.2 0.6 0.5
278 2 0.233333 0.6 0.5
279 2 0.266667 0.6 0.5
280 1 0.3 0.6 0.5
281 2 0.333333 0.6 0.5
282 2 0.366667 0.6 0.5
283 2 0.4 0.6 0.5
284 2 0.433333 0.6 0.5
285 2 0.466667 0.6 0.5
286 2 0 0.633333 0.5
287 2 0.0333333 0.633333 0.5
288 2 0.0666667 0.633333 0.5
289 2 0.1 0.633333 0.5
290 2 0.133333 0.633333 0.5
291 2 0.166667 0.633333 0.5
292 2 0.2 0.633333 0.5
293 2 0.233333 0.633333 0.5
294 2 0.266667 0.633333 0.5
295 2 0.3 0.633333 0.5
296 2 0.333333 0.633333 0.5
297 2 0.366667 0.633333 0.5
298 2 0.4 0.633333 0.5
299 2 0.433333 0.633333 0.5
300 2 0.466667 0.633333 0.5
301 2 0 0.666667 0.5
302 2 0.0333333 0.666667 0.5
303 2 0.0666667 0.666667 0.5
304 2 0.1 0.666667 0.5
305 2 0.133333 0.666667 0.5
306 2 0.166667 0.666667 0.5
307 2 0.2 0.666667 0.5
308 2 0.233333 0.666667 0.5
309 1 0.266667 0.666667 0.5
310 2 0.3 0.666667 0.5
311 2 0.333333 0.666667 0.5
312 2 0.366667 0.666667 0.5
313 2 0.4 0.666667 0.5
314 2 0.433333 0.666667 0.5
315 2 0.466667 0.666667 0.5
316 2 0 0.7 0.5
317 2 0.0333333 0.7 0.5
318 2 0.0666667 0.7 0.5
319 2 0.1 0.7 0.5
320 2 0.133333 0.7 0.5
321 2 0.166667 0.7 0.5
322 2 0.2 0.7 0.5
323 2 0.233333 0.7 0.5
324 2 0.266667 0.7 0.5
325 2 0.3 0.7 0.5
326 2 0.333333 0.7 0.5
327 2 0.366667 0.7 0.5
328 2 0.4 0.7 0.5
329 2 0.433333 0.7 0.5
330 2 0.466667 0.7 0.5
331 2 0 0.733333 0.5
332 2 0.0333333 0.733333 0.5
333 2 0.0666667 0.733333 0.5
334 2 0.1 0.733333 0.5
335 2 0.133333 0.733333 0.5
336 2 0.166667 0.733333 0.5
337 2 0.2 0.733333 0.5
338 2 0.233333 0.733333 0.5
339 2 0.266667 0.733333 0.5
340 2 0.3 0.733333 0.5
341 2 0.333333 0.733333 0.5
342 2 0.366667 0.733333 0.5
343 2 0.4 0.733333 0.5
344 2 0.433333 0.733333 0.5
345 2 0.466667 0.733333 0.5
346 1 0 0.766667 0.5
347 2 0.0333333 0.766667 0.5
348 2 0.0666667 0.766667 0.5
349 2 0.1 0.766667 0.5
350 2 0.133333 0.766667 0.5
351 1 0.166667 0.766667 0.5
352 2 0.2 0.766667 0.5
353 2 0.233333 0.766667 0.5
354 2 0.266667 0.766667 0.5
355 2 0.3 0.766667 0.5
356 2 0.333333 0.766667 0.5
357 2 0.366667 0.766667 0.5
358 2 0.4 0.766667 0.5
359 2 0.433333 0.766667 0.5
360 2 0.466667 0.766667 0.5
361 2 0 0.8 0.5
362 2 0.0333333 0.8 0.5
363 2 0.0666667 0.8 0.5
364 2 0.1 0.8 0.5
365 1 0.133333 0.8 0.5
366 2 0.166667 0.8 0.5
367 2 0.2 0.8 0.5
368 2 0.233333 0.8 0.5
369 2 0.266667 0.8 0.5
370 2 0.3 0.8 0.5
371 1 0.333333 0.8 0.5
372 2 0.366667 0.8 0.5
373 2 0.4 0.8 0.5
374 2 0.433333 0.8 0.5
375 2 0.466667 0.8 0.5
376 2 0 0.833333 0.5
377 2 0.0333333 0.833333 0.5
378 2 0.0666667 0.833333 0.5
379 2 0.1 0.833333 0.5
380 2 0.133333 0.833333 0.5
381 2 0.166667 0.833333 0.5
382 2 0.2 0.833333 0.5
383 2 0.233333 0.833333 0.5
384 2 0.266667 0.833333 0.5
385 2 0.3 0.833333 0.5
386 2 0.333333 0.833333 0.5
387 2 0.366667 0.833333 0.5
388 2 0.4 0.833333 0.5
389 2 0.433333 0.833333 0.5
390 2 0.466667 0.833333 0.5
391 2 0 0.866667 0.5
392 2 0.0333333 0.866667 0.5
393 2 0.0666667 0.866667 0.5
394 2 0.1 0.866667 0.5
395 2 0.133333 0.866667 0.5
396 2 0.166667 0.866667 0.5
397 2 0.2 0.866667 0.5
398 2 0.233333 0.866667 0.5
399 2 0.266667 0.866667 0.5
400 2 0.3 0.866667 0.5
401 2 0.333333 0.866667 0.5
402 2 0.366667 0.866667 0.5
403 2 0.4 0.866667 0.5
404 2 0.433333 0.866667 0.5
405 2 0.466667 0.866667 0.5
406 2 0 0.9 0.5
407 2 0.0333333 0.9 0.5
408 2 0.0666667 0.9 0.5
409 2 0.1 0.9 0.5
410 2 0.133333 0.9 0.5
411 2 0.166667 0.9 0.5
412 2 0.2 0.9 0.5
413 2 0.233333 0.9 0.5
414 2 0.266667 0.9 0.5
415 1 0.3 0.9 0.5
416 2 0.333333 0.9 0.5
417 2 0.366667 0.9 0.5
418 2 0.4 0.9 0.5
419 2 0.433333 0.9 0.5
420 2 0.466667 0.9 0.5
421 2 0 0.933333 0.5
422 2 0.0333333 0.933333 0.5
423 2 0.0666667 0.933333 0.5
424 2 0.1 0.933333 0.5
425 2 0.133333 0.933333 0.5
426 2 0.166667 0.933333 0.5
427 2 0.2 0.933333 0.5
428 2 0.233333 0.933333 0.5
429 2 0.266667 0.933333 0.5
430 2 0.3 0.933333 0.5
431 2 0.333333 0.933333 0.5
432 2 0.366667 0.933333 0.5
433 2 0.4 0.933333 0.5
434 2 0.433333 0.933333 0.5
435 2 0.466667 0.933333 0.5
436 2 0 0.966667 0.5
437 2 0.0333333 0.966667 0.5
438 2 0.0666667 0.966667 0.5
439 2 0.1 0.966667 0.5
440 2 0.133333 0.966667 0.5
441 2 0.166667 0.966667 0.5
442 2 0.2 0.966667 0.5
443 2 0.233333 0.966667 0.5
444 2 0.266667 0.966667 0.5
445 2 0.3 0.966667 0.5
446 2 0.333333 0.966667 0.5
447 2 0.366667 0.966667 0.5
448 2 0.4 0.966667 0.5
449 2 0.433333 0.966667 0.5
450 2 0.466667 0.966667 0.5
451 2 0.5 0 0.5
452 2 0.533333 0 0.5
453 2 0.566667 0 0.5
454 2 0.6 0 0.5
455 2 0.633333 0 0.5
456 2 0.666667 0 0.5
457 2 0.7 0 0.5
458 2 0.733333 0 0.5
459 2 0.766667 0 0.5
460 2 0.8 0 0.5
461 1 0.833333 0 0.5
462 1 0.866667 0 0.5
463 2 0.9 0 0.5
464 2 0.933333 0 0.5
465 2 0.966667 0 0.5
466 2 0.5 0.0333333 0.5
467 2 0.533333 0.0333333 0.5
468 2 0.566667 0.0333333 0.5
469 2 0.6 0.0333333 0.5
470 1 0.633333 0.0333333 0.5
471 2 0.666667 0.0333333 0.5
472 2 0.7 0.0333333 0.5
473 2 0.733333 0.0333333 0.5
474 2 0.766667 0.0333333 0.5
475 2 0.8 0.0333333 0.5
476 2 0.833333 0.0333333 0.5
477 2 0.866667 0.0333333 0.5
478 2 0.9 0.0333333 0.5
479 2 0.933333 0.0333333 0.5
480 2 0.966667 0.0333333 0.5
481 2 0.5 0.0666667 0.5
482 2 0.533333 0.0666667 0.5
483 2 0.566667 0.0666667 0.5
484 2 0.6 0.0666667 0.5
485 2 0.633333 0.0666667 0.5
486 1 0.666667 0.0666667 0.5
487 2 0.7 0.0666667 0.5
488 2 0.733333 0.0666667 0.5
489 2 0.766667 0.0666667 0.5
490 2 0.8 0.0666667 0.5
491 2 0.833333 0.0666667 0.5
492 2 0.866667 0.0666667 0.5
493 2 0.9 0.0666667 0.5
494 2 0.933333 0.0666667 0.5
495 2 0.966667 0.0666667 0.5
496 2 0.5 0.1 0.5
497 2 0.533333 0.1 0.5
498 2 0.566667 0.1 0.5
499 2 0.6 0.1 0.5
500 1 0.633333 0.1 0.5
501 2 0.666667 0.1 0.5
502 2 0.7 0.1 0.5
503 2 0.733333 0.1 0.5
504 2 0.766667 0.1 0.5
505 2 0.8 0.1 0.5
506 2 0.833333 0.1 0.5
507 2 0.866667 0.1 0.5
508 2 0.9 0.1 0.5
509 2 0.933333 0.1 0.5
510 2 0.966667 0.1 0.5
511 2 0.5 0.133333 0.5
512 2 0.533333 0.133333 0.5
513 2 0.566667 0.133333 0.5
514 2 0.6 0.133333 0.5
515 2 0.633333 0.133333 0.5
516 2 0.666667 0.133333 0.5
517 2 0.7 0.133333 0.5
518 1 0.733333 0.133333 0.5
519 2 0.766667 0.133333 0.5
520 2 0.8 0.133333 0.5
521 2 0.833333 0.133333 0.5
522 2 0.866667 0.133333 0.5
523 2 0.9 0.133333 0.5
524 2 0.933333 0.133333 0.5
525 2 0.966667 0.133333 0.5
526 2 0.5 0.166667 0.5
527 2 0.533333 0.166667 0.5
528 2 0.566667 0.166667 0.5
529 2 0.6 0.166667 0.5
530 2 0.633333 0.166667 0.5
531 2 0.666667 0.166667 0.5
532 2 0.7 0.166667 0.5
533 2 0.733333 0.166667 0.5
534 2 0.766667 0.166667 0.5
535 2 0.8 0.166667 0.5
536 2 0.833333 0.166667 0.5
537 2 0.866667 0.166667 0.5
538 1 0.9 0.166667 0.5
539 2 0.933333 0.166667 0.5
540 2 0.966667 0.166667 0.5
541 2 0.5 0.2 0.5
542 2 0.533333 0.2 0.5
543 2 0.566667 0.2 0.5
544 2 0.6 0.2 0.5
545 2 0.633333 0.2 0.5
546 2 0.666667 0.2 0.5
547 2 0.7 0.2 0.5
548 2 0.733333 0.2 0.5
549 2 0.766667 0.2 0.5
550 2 0.8 0.2 0.5
551 2 0.833333 0.2 0.5
552 2 0.866667 0.2 0.5
553 2 0.9 0.2 0.5
554 2 0.933333 0.2 0.5
555 2 0.966667 0.2 0.5
556 2 0.5 0.233333 0.5
557 2 0.533333 0.233333 0.5
558 2 0.566667 0.233333 0.5
559 2 0.6 0.233333 0.5
560 2 0.633333 0.233333 0.5
561 2 0.666667 0.233333 0.5
562 2 0.7 0.233333 0.5
563 2 0.733333 0.233333 0.5
564 2 0.766667 0.233333 0.5
565 2 0.8 0.233333 0.5
566 1 0.833333 0.233333 0.5
567 2 0.866667 0.233333 0.5
568 2 0.9 0.233333 0.5
569 2 0.933333 0.233333 0.5
570 2 0.966667 0.233333 0.5
571 2 0.5 0.266667 0.5
572 2 0.533333 0.266667 0.5
573 2 0.566667 0.266667 0.5
574 2 0.6 0.266667 0.5
575 2 0.633333 0.266667 0.5
576 2 0.666667 0.266667 0.5
577 2 0.7 0.266667 0.5
578 2 0.733333 0.266667 0.5
579 2 0.766667 0.266667 0.5
580 2 0.8 0.266667 0.5
581 2 0.833333 0.266667 0.5
582 2 0.866667 0.266667 0.5
583 2 0.9 0.266667 0.5
584 2 0.933333 0.266667 0.5
585 2 0.966667 0.266667 0.5
586 2 0.5 0.3 0.5
587 2 0.533333 0.3 0.5
588 2 0.566667 0.3 0.5
589 2 0.6 0.3 0.5
590 2 0.633333 0.3 0.5
591 1 0.666667 0.3 0.5
592 1 0.7 0.3 0.5
593 2 0.733333 0.3 0.5
594 2 0.766667 0.3 0.5
595 2 0.8 0.3 0.5
596 2 0.833333 0.3 0.5
597 2 0.866667 0.3 0.5
598 2 0.9 0.3 0.5
599 2 0.933333 0.3 0.5
600 2 0.966667 0.3 0.5
601 2 0.5 0.333333 0.5
602 2 0.533333 0.333333 0.5
603 2 0.566667 0.333333 0.5
604 2 0.6 0.333333 0.5
605 2 0.633333 0.333333 0.5
606 2 0.666667 0.333333 0.5
607 2 0.7 0.333333 0.5
608 2 0.733333 0.333333 0.5
609 2 0.766667 0.333333 0.5
610 1 0.8 0.333333 0.5
611 2 0.833333 0.333333 0.5
612 2 0.866667 0.333333 0.5
613 2 0.9 0.333333 0.5
614 2 0.933333 0.333333 0.5
615 2 0.966667 0.333333 0.5
616 2 0.5 0.366667 0.5
617 1 0.533333 0.366667 0.5
618 2 0.566667 0.366667 0.5
619 2 0.6 0.366667 0.5
620 2 0.633333 0.366667 0.5
621 2 0.666667 0.366667 0.5
622 2 0.7 0.366667 0.5
623 2 0.733333 0.366667 0.5
624 2 0.766667 0.366667 0.5
625 2 0.8 0.366667 0.5
626 1 0.833333 0.366667 0.5
627 2 0.866667 0.366667 0.5
628 2 0.9 0.366667 0.5
629 2 0.933333 0.366667 0.5
630 2 0.966667 0.366667 0.5
631 2 0.5 0.4 0.5
632 2 0.533333 0.4 0.5
633 2 0.566667 0.4 0.5
634 2 0.6 0.4 0.5
635 2 0.633333 0.4 0.5
636 2 0.666667 0.4 0.5
637 2 0.7 0.4 0.5
638 2 0.733333 0.4 0.5
639 2 0.766667 0.4 0.5
640 2 0.8 0.4 0.5
641 2 0.833333 0.4 0.5
642 2 0.866667 0.4 0.5
643 2 0.9 0.4 0.5
644 2 0.933333 0.4 0.5
645 2 0.966667 0.4 0.5
646 2 0.5 0.433333 0.5
647 2 0.533333 0.433333 0.5
648 2 0.566667 0.433333 0.5
649 2 0.6 0.433333 0.5
650 2 0.633333 0.433333 0.5
651 2 0.666667 0.433333 0.5
652 2 0.7 0.433333 0.5
653 2 0.733333 0.433333 0.5
654 2 0.766667 0.433333 0.5
655 2 0.8 0.433333 0.5
656 1 0.833333 0.433333 0.5
657 2 0.866667 0.433333 0.5
658 2 0.9 0.433333 0.5
659 2 0.933333 0.433333 0.5
660 2 0.966667 0.433333 0.5
661 2 0.5 0.466667 0.5
662 2 0.533333 0.466667 0.5
663 2 0.566667 0.466667 0.5
664 2 0.6 0.466667 0.5
665 2 0.633333 0.466667 0.5
666 2 0.666667 0.466667 0.5
667 2 0.7 0.466667 0.5
668 2 0.733333 0.466667 0.5
669 2 0.766667 0.466667 0.5
670 2 0.8 0.466667 0.5
671 2 0.833333 0.466667 0.5
672 2 0.866667 0.466667 0.5
673 2 0.9 0.466667 0.5
674 2 0.933333 0.466667 0.5
675 2 0.966667 0.466667 0.5
676 2 0.5 0.5 0.5
677 2 0.533333 0.5 0.5
678 2 0.566667 0.5 0.5
679 1 0.6 0.5 0.5
680 2 0.633333 0.5 0.5
681 2 0.666667 0.5 0.5
682 2 0.7 0.5 0.5
683 2 0.733333 0.5 0.5
684 2 0.766667 0.5 0.5
685 2 0.8 0.5 0.5
686 2 0.833333 0.5 0.5
687 2 0.866667 0.5 0.5
688 2 0.9 0.5 0.5
689 2 0.933333 0.5 0.5
690 2 0.966667 0.5 0.5
691 2 0.5 0.533333 0.5
692 2 0.533333 0.533333 0.5
693 2 0.566667 0.533333 0.5
694 2 0.6 0.533333 0.5
695 1 0.633333 0.533333 0.5
696 2 0.666667 0.533333 0.5
697 2 0.7 0.533333 0.5
698 2 0.733333 0.533333 0.5
699 2 0.766667 0.533333 0.5
700 2 0.8 0.533333 0.5
701 2 0.833333 0.533333 0.5
702 2 0.866667 0.533333 0.5
703 2 0.9 0.533333 0.5
704 2 0.933333 0.533333 0.5
705 2 0.966667 0.533333 0.5
706 2 0.5 0.566667 0.5
707 2 0.533333 0.566667 0.5
708 2 0.566667 0.566667 0.5
709 2 0.6 0.566667 0.5
710 2 0.633333 0.566667 0.5
711 2 0.666667 0.566667 0.5
712 1 0.7 0.566667 0.5
713 2 0.733333 0.566667 0.5
714 2 0.766667 0.566667 0.5
715 2 0.8 0.566667 0.5
716 2 0.833333 0.566667 0.5
717 2 0.866667 0.566667 0.5
718 2 0.9 0.566667 0.5
719 2 0.933333 0.566667 0.5
720 2 0.966667 0.566667 0.5
721 2 0.5 0.6 0.5
722 2 0.533333 0.6 0.5
723 2 0.566667 0.6 0.5
724 2 0.6 0.6 0.5
725 2 0.633333 0.6 0.5
726 2 0.666667 0.6 0.5
727 2 0.7 0.6 0.5
728 2 0.733333 0.6 0.5
729 2 0.766667 0.6 0.5
730 2 0.8 0.6 0.5
731 2 0.833333 0.6 0.5
732 2 0.866667 0.6 0.5
733 2 0.9 0.6 0.5
734 2 0.933333 0.6 0.5
735 2 0.966667 0.6 0.5
736 2 0.5 0.633333 0.5
737 2 0.533333 0.633333 0.5
738 2 0.566667 0.633333 0.5
739 2 0.6 0.633333 0.5
740 2 0.633333 0.633333 0.5
741 2 0.666667 0.633333 0.5
742 2 0.7 0.633333 0.5
743 2 0.733333 0.633333 0.5
744 2 0.766667 0.633333 0.5
745 2 0.8 0.633333 0.5
746 2 0.833333 0.633333 0.5
747 2 0.866667 0.633333 0.5
748 2 0.9 0.633333 0.5
749 2 0.933333 0.633333 0.5
750 2 0.966667 0.633333 0.5
751 2 0.5 0.666667 0.5
752 2 0.533333 0.666667 0.5
753 2 0.566667 0.666667 0.5
754 2 0.6 0.666667 0.5
755 2 0.633333 0.666667 0.5
756 2 0.666667 0.666667 0.5
757 2 0.7 0.666667 0.5
758 2 0.733333 0.666667 0.5
759 2 0.766667 0.666667 0.5
760 2 0.8 0.666667 0.5
761 2 0.833333 0.666667 0.5
762 2 0.866667 0.666667 0.5
763 2 0.9 0.666667 0.5
764 2 0.933333 0.666667 0.5
765 2 0.966667 0.666667 0.5
766 2 0.5 0.7 0.5
767 2 0.533333 0.7 0.5
768 2 0.566667 0.7 0.5
769 2 0.6 0.7 0.5
770 1 0.633333 0.7 0.5
771 2 0.666667 0.7 0.5
772 2 0.7 0.7 0.5
773 2 0.733333 0.7 0.5
774 2 0.766667 0.7 0.5
775 2 0.8 0.7 0.5
776 1 0.833333 0.7 0.5
777 2 0.866667 0.7 0.5
778 2 0.9 0.7 0.5
779 2 0.933333 0.7 0.5
780 2 0.966667 0.7 0.5
781 2 0.5 0.733333 0.5
782 2 0.533333 0.733333 0.5
783 2 0.566667 0.733333 0.5
784 2 0.6 0.733333 0.5
785 2 0.633333 0.733333 0.5
786 2 0.666667 0.733333 0.5
787 2 0.7 0.733333 0.5
788 2 0.733333 0.733333 0.5
789 2 0.766667 0.733333 0.5
790 2 0.8 0.733333 0.5
791 2 0.833333 0.733333 0.5
792 2 0.866667 0.733333 0.5
793 2 0.9 0.733333 0.5
794 2 0.933333 0.733333 0.5
795 2 0.966667 0.733333 0.5
796 2 0.5 0.766667 0.5
797 2 0.533333 0.766667 0.5
798 2 0.566667 0.766667 0.5
799 2 0.6 0.766667 0.5
800 2 0.633333 0.766667 0.5
801 2 0.666667 0.766667 0.5
802 2 0.7 0.766667 0.5
803 2 0.733333 0.766667 0.5
804 2 0.766667 0.766667 0.5
805 2 0.8 0.766667 0.5
806 2 0.833333 0.766667 0.5
807 2 0.866667 0.766667 0.5
808 2 0.9 0.766667 0.5
809 2 0.933333 0.766667 0.5
810 2 0.966667 0.766667 0.5
811 2 0.5 0.8 0.5
812 2 0.533333 0.8 0.5
813 2 0.566667 0.8 0.5
814 2 0.6 0.8 0.5
815 2 0.633333 0.8 0.5
816 2 0.666667 0.8 0.5
817 2 0.7 0.8 0.5
818 2 0.733333 0.8 0.5
819 2 0.766667 0.8 0.5
820 2 0.8 0.8 0.5
821 2 0.833333 0.8 0.5
822 2 0.866667 0.8 0.5
823 2 0.9 0.8 0.5
824 2 0.933333 0.8 0.5
825 2 0.966667 0.8 0.5
826 2 0.5 0.833333 0.5
827 2 0.533333 0.833333 0.5
828 2 0.566667 0.833333 0.5
829 2 0.6 0.833333 0.5
830 2 0.633333 0.833333 0.5
831 2 0.666667 0.833333 0.5
832 2 0.7 0.833333 0.5
833 1 0.733333 0.833333 0.5
834 2 0.766667 0.833333 0.5
835 2 0.8 0.833333 0.5
836 2 0.833333 0.833333 0.5
837 2 0.866667 0.833333 0.5
838 2 0.9 0.833333 0.5
839 2 0.933333 0.833333 0.5
840 2 0.966667 0.833333 0.5
841 2 0.5 0.866667 0.5
842 2 0.533333 0.866667 0.5
843 2 0.566667 0.866667 0.5
844 2 0.6 0.866667 0.5
845 2 0.633333 0.866667 0.5
846 2 0.666667 0.866667 0.5
847 2 0.7 0.866667 0.5
848 2 0.733333 0.866667 0.5
849 1 0.766667 0.866667 0.5
850 2 0.8 0.866667 0.5
851 2 0.833333 0.866667 0.5
852 2 0.866667 0.866667 0.5
853 2 0.9 0.866667 0.5
854 2 0.933333 0.866667 0.5
855 2 0.966667 0.866667 0.5
856 2 0.5 0.9 0.5
857 2 0.533333 0.9 0.5
858 2 0.566667 0.9 0.5
859 2 0.6 0.9 0.5
860 2 0.633333 0.9 0.5
861 2 0.666667 0.9 0.5
862 2 0.7 0.9 0.5
863 2 0.733333 0.9 0.5
864 2 0.766667 0.9 0.5
865 2 0.8 0.9 0.5
866 2 0.833333 0.9 0.5
867 2 0.866667 0.9 0.5
868 2 0.9 0.9 0.5
869 2 0.933333 0.9 0.5
870 2 0.966667 0.9 0.5
871 2 0.5 0.933333 0.5
872 2 0.533333 0.933333 0.5
873 2 0.566667 0.933333 0.5
874 1 0.6 0.933333 0.5
875 2 0.633333 0.933333 0.5
876 2 0.666667 0.933333 0.5
877 2 0.7 0.933333 0.5
878 2 0.733333 0.933333 0.5
879 2 0.766667 0.933333 0.5
880 2 0.8 0.933333 0.5
881 2 0.833333 0.933333 0.5
882 2 0.866667 0.933333 0.5
883 2 0.9 0.933333 0.5
884 2 0.933333 0.933333 0.5
885 2 0.966667 0.933333 0.5
886 2 0.5 0.966667 0.5
887 2 0.533333 0.966667 0.5
888 2 0.566667 0.966667 0.5
889 2 0.6 0.966667 0.5
890 2 0.633333 0.966667 0.5
891 2 0.666667 0.966667 0.5
892 2 0.7 0.966667 0.5
893 2 0.733333 0.966667 0.5
894 2 0.766667 0.966667 0.5
895 2 0.8 0.966667 0.5
896 2 0.833333 0.966667 0.5
897 2 0.866667 0.966667 0.5
898 2 0.9 0.966667 0.5
899 1 0.933333 0.966667 0.5
900 2 0.966667 0.966667 0.5
ITEM: TIMESTEP
1000
ITEM: NUMBER OF ATOMS
900
ITEM: BOX BOUNDS pp pp pp
-7.2776297606589253e+00 3.0727762976065787e+02
-7.2776297606589253e+00 3.0727762976065787e+02
-5.0000000000000000e+00 5.0000000000000000e+00
ITEM: ATOMS id type xs ys zs
225 2 0.444395 0.482467 0.5
661 2 0.467951 0.481488 0.5
3 2 0.102964 0.0174702 0.5
646 2 0.474982 0.46387 0.5
5 2 0.111796 0.0172118 0.5
571 2 0.464111 0.297076 0.5
541 2 0.463457 0.196227 0.5
496 2 0.493148 0.120796 0.5
9 2 0.285611 0.0105966 0.5
481 2 0.463204 0.103597 0.5
11 2 0.348777 0.0117362 0.5
451 2 0.479942 0.00731534 0.5
218 2 0.257856 0.487398 0.5
217 2 0.238301 0.478469 0.5
15 2 0.433544 0.0353553 0.5
16 2 0.036676 0.0458265 0.5
17 1 0.0364013 0.0326744 0.5
18 2 0.0366445 0.0553161 0.5
19 2 0.0958411 0.0222914 0.5
20 1 0.129573 0.0259469 0.5
21 2 0.175686 0.0291596 0.5
22 2 0.172199 0.00324462 0.5
238 2 0.373569 0.48774 0.5
24 2 0.229097 0.0659131 0.5
25 2 0.282179 0.0311526 0.5
26 2 0.319424 0.0708733 0.5
27 2 0.362122 0.00693945 0.5
28 2 0.36625 0.0266981 0.5
29 2 0.414218 0.0511299 0.5
30 2 0.480309 0.0351766 0.5
31 2 0.0122992 0.042446 0.5
32 1 0.0257031 0.0577135 0.5
33 2 0.0521321 0.0838727 0.5
34 2 0.0936073 0.0928405 0.5
35 2 0.100251 0.0778161 0.5
36 2 0.150095 0.0487074 0.5
37 2 0.177701 0.078684 0.5
38 2 0.199791 0.0668455 0.5
39 2 0.281842 0.0892807 0.5
40 2 0.285064 0.0486995 0.5
41 2 0.354912 0.0995974 0.5
42 2 0.37999 0.0408274 0.5
43 2 0.38258 0.0847278 0.5
44 2 0.422447 0.097039 0.5
45 2 0.431976 0.0830818 0.5
224 2 0.405257 0.439647 0.5
47 2 0.0531637 0.0969316 0.5
48 2 0.0709585 0.092443 0.5
49 2 0.129791 0.0902175 0.5
50 2 0.128231 0.123302 0.5
51 2 0.157436 0.0708069 0.5
52 2 0.168622 0.112352 0.5
53 2 0.255364 0.117671 0.5
54 2 0.302565 0.081305 0.5
55 2 0.276712 0.0954432 0.5
56 2 0.313228 0.0725473 0.5
57 2 0.383037 0.0945699 0.5
58 2 0.372206 0.10987 0.5
59 2 0.459935 0.105443 0.5
60 2 0.436133 0.119648 0.5
223 2 0.434001 0.491323 0.5
62 2 0.0433713 0.100592 0.5
63 2 0.0431411 0.150464 0.5
64 2 0.0806742 0.161271 0.5
65 2 0.160435 0.104248 0.5
66 2 0.12983 0.142062 0.5
67 2 0.178273 0.120115 0.5
68 2 0.246998 0.103229 0.5
69 2 0.261494 0.11536 0.5
70 2 0.297612 0.137322 0.5
71 2 0.360158 0.150828 0.5
72 2 0.333308 0.131195 0.5
73 2 0.421221 0.102704 0.5
74 2 0.458409 0.149402 0.5
75 1 0.472268 0.141407 0.5
76 2 0.0110131 0.153606 0.5
77 2 0.0723958 0.165445 0.5
78 2 0.096948 0.198091 0.5
79 2 0.114657 0.165093 0.5
80 2 0.130757 0.171501 0.5
81 2 0.1411 0.170884 0.5
82 2 0.219561 0.18698 0.5
83 2 0.260814 0.172232 0.5
84 2 0.277567 0.193534 0.5
85 2 0.266664 0.157586 0.5
86 2 0.357627 0.193393 0.5
87 2 0.382946 0.162991 0.5
88 2 0.436277 0.141214 0.5
89 2 0.444479 0.141283 0.5
90 2 0.452223 0.15939 0.5
91 2 0.0342472 0.189234 0.5
92 2 0.0293112 0.223552 0.5
93 2 0.0736404 0.200213 0.5
94 2 0.0856796 0.177875 0.5
95 2 0.164101 0.230808 0.5
96 2 0.169169 0.241266 0.5
97 2 0.231589 0.22904 0.5
98 2 0.202083 0.197596 0.5
99 2 0.23769 0.181164 0.5
100 2 0.271379 0.2139 0.5
101 2 0.354356 0.227853 0.5
102 2 0.337567 0.207068 0.5
103 2 0.399717 0.213139 0.5
104 2 0.443941 0.173188 0.5
105 2 0.430648 0.200788 0.5
106 2 0.0269388 0.261174 0.5
107 2 0.037003 0.269856 0.5
108 2 0.0995859 0.220121 0.5
109 2 0.137506 0.24466 0.5
110 2 0.14806 0.249668 0.5
111 2 0.164175 0.257864 0.5
112 2 0.166093 0.208016 0.5
113 2 0.198367 0.245436 0.5
114 2 0.255357 0.239537 0.5
115 2 0.268306 0.255088 0.5
116 2 0.305219 0.202015 0.5
117 2 0.395001 0.229621 0.5
118 2 0.412727 0.246761 0.5
119 1 0.428946 0.245508 0.5
120 2 0.459492 0.243586 0.5
121 2 0.0366794 0.252046 0.5
122 2 0.0182589 0.260938 0.5
123 2 0.085426 0.254475 0.5
124 2 0.138759 0.26502 0.5
125 2 0.158085 0.274667 0.5
126 2 0.196038 0.250473 0.5
127 2 0.167254 0.265077 0.5
128 2 0.254717 0.261867 0.5
129 2 0.274123 0.275962 0.5
130 2 0.292237 0.271913 0.5
131 2 0.321805 0.229505 0.5
132 2 0.366302 0.292747 0.5
133 2 0.383863 0.304051 0.5
134 2 0.405906 0.269716 0.5
135 2 0.493043 0.241772 0.5
222 2 0.350515 0.479411 0.5
137 2 0.0122433 0.329743 0.5
138 2 0.0989624 0.322207 0.5
139 2 0.0850585 0.271804 0.5
140 2 0.134351 0.313955 0.5
141 2 0.189022 0.264088 0.5
142 2 0.166415 0.289967 0.5
143 2 0.23572 0.324441 0.5
144 2 0.300411 0.281629 0.5
145 2 0.29095 0.293633 0.5
146 2 0.32704 0.292554 0.5
147 2 0.384287 0.288444 0.5
148 2 0.428734 0.328976 0.5
149 2 0.433698 0.311133 0.5
240 2 0.458558 0.494817 0.5
221 2 0.349525 0.460658 0.5
152 2 0.0446298 0.295133 0.5
153 2 0.105617 0.367415 0.5
154 2 0.0960549 0.326873 0.5
155 2 0.178621 0.335444 0.5
156 2 0.146614 0.342717 0.5
157 2 0.201824 0.320776 0.5
158 2 0.252509 0.336744 0.5
159 2 0.264648 0.327041 0.5
160 2 0.278405 0.295984 0.5
161 2 0.3259 0.32499 0.5
162 2 0.3766 0.315034 0.5
163 2 0.42173 0.328847 0.5
164 2 0.429285 0.338157 0.5
165 2 0.437083 0.339826 0.5
166 2 0.0119979 0.379544 0.5
167 2 0.0614396 0.385878 0.5
168 2 0.0874188 0.335439 0.5
169 2 0.088304 0.37083 0.5
170 2 0.162716 0.371139 0.5
171 2 0.169589 0.355906 0.5
172 2 0.183847 0.355075 0.5
173 2 0.249793 0.383813 0.5
174 2 0.294506 0.376272 0.5
175 2 0.271559 0.394559 0.5
176 1 0.321603 0.376966 0.5
177 2 0.36469 0.403055 0.5
178 2 0.400447 0.377468 0.5
179 2 0.44588 0.340296 0.5
180 2 0.437221 0.351946 0.5
220 2 0.271979 0.454891 0.5
182 2 0.010225 0.406671 0.5
183 2 0.0680379 0.415445 0.5
184 2 0.0991269 0.378711 0.5
185 2 0.133608 0.433685 0.5
186 2 0.166456 0.384161 0.5
187 2 0.192967 0.406415 0.5
188 2 0.206813 0.363648 0.5
189 2 0.251914 0.376062 0.5
190 2 0.295314 0.388779 0.5
191 2 0.335249 0.390641 0.5
192 2 0.341084 0.371141 0.5
193 2 0.398937 0.428918 0.5
194 2 0.469897 0.410174 0.5
437 2 0.0173939 0.000828969 0.5
219 2 0.277648 0.450059 0.5
197 2 0.0285575 0.453803 0.5
198 2 0.0292055 0.44106 0.5
199 2 0.130488 0.447777 0.5
200 2 0.127307 0.467763 0.5
201 2 0.196582 0.448477 0.5
202 2 0.172906 0.460138 0.5
203 2 0.249536 0.424338 0.5
204 2 0.252537 0.429536 0.5
205 2 0.278795 0.469623 0.5
206 2 0.365124 0.455485 0.5
207 2 0.350769 0.400382 0.5
208 2 0.412219 0.462935 0.5
209 2 0.451288 0.402659 0.5
210 1 0.459654 0.43134 0.5
211 2 0.012439 0.49343 0.5
212 2 0.00204735 0.479236 0.5
213 2 0.0292481 0.495021 0.5
214 2 0.0772963 0.478182 0.5
215 2 0.122202 0.472331 0.5
216 2 0.194868 0.4659 0.5
226 2 0.0105414 0.498481 0.5
227 2 0.0468923 0.49659 0.5
230 2 0.169748 0.466363 0.5
231 2 0.153633 0.489303 0.5
233 2 0.215163 0.497467 0.5
234 2 0.295882 0.461673 0.5
235 2 0.294215 0.476117 0.5
237 2 0.371974 0.495249 0.5
540 2 0.0033301 0.12972 0.5
247 2 0.229189 0.495594 0.5
856 2 0.467905 0.9096 0.5
841 2 0.462574 0.844076 0.5
228 2 0.0861207 0.503527 0.5
229 2 0.0821532 0.522149 0.5
826 2 0.495122 0.830566 0.5
811 2 0.472324 0.789644 0.5
232 2 0.172152 0.527964 0.5
796 2 0.475548 0.743368 0.5
766 2 0.476029 0.719839 0.5
706 2 0.472601 0.588845 0.5
236 2 0.357442 0.51702 0.5
691 2 0.466782 0.515362 0.5
444 2 0.25542 0.954977 0.5
239 2 0.457354 0.508457 0.5
443 2 0.214009 0.93873 0.5
450 2 0.462525 0.984221 0.5
242 2 0.0330175 0.534032 0.5
243 2 0.096859 0.533448 0.5
244 2 0.112019 0.51069 0.5
245 2 0.101974 0.554646 0.5
246 2 0.145811 0.56442 0.5
735 2 0.00515732 0.566052 0.5
248 2 0.228854 0.501561 0.5
249 2 0.267811 0.503518 0.5
250 2 0.284098 0.507685 0.5
251 2 0.354466 0.537291 0.5
252 2 0.358603 0.538744 0.5
253 2 0.403583 0.500496 0.5
254 2 0.406923 0.569242 0.5
255 1 0.471616 0.528953 0.5
449 2 0.455368 0.952957 0.5
257 2 0.0580331 0.552779 0.5
258 2 0.103686 0.530627 0.5
259 2 0.0909879 0.591853 0.5
260 2 0.124087 0.584215 0.5
261 2 0.190506 0.538718 0.5
262 2 0.201018 0.590656 0.5
263 2 0.23192 0.570674 0.5
264 2 0.267934 0.543373 0.5
265 2 0.328612 0.596958 0.5