LAMMPS (17 Nov 2016)
# bulk Silicon lattice
units            metal
boundary         p p p

atom_style       atomic

variable         x index 3.276 3.277 3.278 3.279 3.280 3.281 3.282 3.283 3.284

#lattice          diamond $x
#lattice         diamond 5.431
#lattice          fcc 3.615
lattice          bcc 3.28
Lattice spacing in x,y,z = 3.28 3.28 3.28
#lattice         sc 2.60

region           box block 0 3 0 3 0 3
create_box       1 box
Created orthogonal box = (0 0 0) to (9.84 9.84 9.84)
  2 by 1 by 2 MPI processor grid
create_atoms     1 box
Created 54 atoms

pair_style       sw
pair_coeff       * * Si.sw Si
Reading potential file Si.sw with DATE: 2007-06-11
mass             1 28
neighbor         1.0 bin
neighbor         1.0 bin
neigh_modify     every 1 delay 5 check yes

variable         P equal pe/54
variable         r equal 54/($x*3)^3
variable         r equal 54/(3.276*3)^3
timestep         0.005
thermo           10

min_style        sd
minimize         1.0e-12 1.0e-12 1000 1000
WARNING: Resetting reneighboring criteria during minimization (../min.cpp:168)
Neighbor list info ...
  1 neighbor list requests
  update every 1 steps, delay 0 steps, check yes
  max neighbors/atom: 2000, page size: 100000
  master list distance cutoff = 4.77118
  ghost atom cutoff = 4.77118
  binsize = 2.38559 -> bins = 5 5 5
Memory usage per processor = 3.61073 Mbytes
Step Temp E_pair E_mol TotEng Press 
       0            0   -216.86924            0   -216.86924   -215297.63 
       1            0   -216.86924            0   -216.86924   -215297.63 
Loop time of 0.0106116 on 4 procs for 1 steps with 54 atoms

94.2% CPU use with 4 MPI tasks x no OpenMP threads

Minimization stats:
  Stopping criterion = energy tolerance
  Energy initial, next-to-last, final = 
        -216.869242708     -216.869242708     -216.869242708
  Force two-norm initial, final = 7.29848e-14 7.05291e-14
  Force max component initial, final = 1.53523e-14 1.31006e-14
  Final line search alpha, max atom move = 1 1.31006e-14
  Iterations, force evaluations = 1 2

MPI task timing breakdown:
Section |  min time  |  avg time  |  max time  |%varavg| %total
---------------------------------------------------------------
Pair    | 0.0012844  | 0.0036622  | 0.010453   |   6.5 | 34.51
Neigh   | 0          | 0          | 0          |   0.0 |  0.00
Comm    | 4.4584e-05 | 0.0068364  | 0.0092227  |   4.7 | 64.42
Output  | 0          | 0          | 0          |   0.0 |  0.00
Modify  | 0          | 0          | 0          |   0.0 |  0.00
Other   |            | 0.000113   |            |       |  1.06

Nlocal:    13.5 ave 15 max 12 min
Histogram: 2 0 0 0 0 0 0 0 0 2
Nghost:    162.5 ave 164 max 161 min
Histogram: 2 0 0 0 0 0 0 0 0 2
Neighs:    0 ave 0 max 0 min
Histogram: 4 0 0 0 0 0 0 0 0 0
FullNghs:  351 ave 390 max 312 min
Histogram: 2 0 0 0 0 0 0 0 0 2

Total # of neighbors = 1404
Ave neighs/atom = 26
Neighbor list builds = 0
Dangerous builds = 0

compute          3 all pe/atom
compute          4 all ke/atom
compute          5 all coord/atom 3.0
dump             1 all cfg 1 bcc.*.cfg mass type xs ys zs id type c_3 c_4 c_5

fix              1 all nvt temp 0.1 0.1 2 drag 0.2
run 1000
Neighbor list info ...
  2 neighbor list requests
  update every 1 steps, delay 5 steps, check yes
  max neighbors/atom: 2000, page size: 100000
  master list distance cutoff = 4.77118
  ghost atom cutoff = 4.77118
  binsize = 2.38559 -> bins = 5 5 5
Memory usage per processor = 4.23688 Mbytes
Step Temp E_pair E_mol TotEng Press 
       1            0   -216.86924            0   -216.86924   -215297.63 
      10 9.9249986e-26   -216.86924            0   -216.86924   -215297.63 
      20 6.8294608e-26   -216.86924            0   -216.86924   -215297.63 
      30 7.6981109e-26   -216.86924            0   -216.86924   -215297.63 
      40 9.5323956e-26   -216.86924            0   -216.86924   -215297.63 
      50 1.3360602e-25   -216.86924            0   -216.86924   -215297.63 
      60 1.4900582e-25   -216.86924            0   -216.86924   -215297.63 
      70 1.6971695e-25   -216.86924            0   -216.86924   -215297.63 
      80 1.7443835e-25   -216.86924            0   -216.86924   -215297.63 
      90 2.1196076e-25   -216.86924            0   -216.86924   -215297.63 
     100 2.4159419e-25   -216.86924            0   -216.86924   -215297.63 
     110 2.3572001e-25   -216.86924            0   -216.86924   -215297.63 
     120 3.1043743e-25   -216.86924            0   -216.86924   -215297.63 
     130 3.6605594e-25   -216.86924            0   -216.86924   -215297.63 
     140 3.7783144e-25   -216.86924            0   -216.86924   -215297.63 
     150 4.1417651e-25   -216.86924            0   -216.86924   -215297.63 
     160 3.7735149e-25   -216.86924            0   -216.86924   -215297.63 
     170 5.1762829e-25   -216.86924            0   -216.86924   -215297.63 
     180 4.7126886e-25   -216.86924            0   -216.86924   -215297.63 
     190 5.511636e-25   -216.86924            0   -216.86924   -215297.63 
     200 5.6113862e-25   -216.86924            0   -216.86924   -215297.63 
     210 6.7129022e-25   -216.86924            0   -216.86924   -215297.63 
     220 6.1757512e-25   -216.86924            0   -216.86924   -215297.63 
     230 7.2505254e-25   -216.86924            0   -216.86924   -215297.63 
     240 7.0885087e-25   -216.86924            0   -216.86924   -215297.63 
     250 7.3951993e-25   -216.86924            0   -216.86924   -215297.63 
     260 7.9820999e-25   -216.86924            0   -216.86924   -215297.63 
     270 7.9382448e-25   -216.86924            0   -216.86924   -215297.63 
     280 9.3033669e-25   -216.86924            0   -216.86924   -215297.63 
     290 9.0232093e-25   -216.86924            0   -216.86924   -215297.63 
     300 9.8226003e-25   -216.86924            0   -216.86924   -215297.63 
     310 1.1601725e-24   -216.86924            0   -216.86924   -215297.63 
     320 1.0782481e-24   -216.86924            0   -216.86924   -215297.63 
     330 1.0484553e-24   -216.86924            0   -216.86924   -215297.63 
     340 1.1918607e-24   -216.86924            0   -216.86924   -215297.63 
     350 1.2926476e-24   -216.86924            0   -216.86924   -215297.63 
     360 1.2574044e-24   -216.86924            0   -216.86924   -215297.63 
     370 1.3252671e-24   -216.86924            0   -216.86924   -215297.63 
     380 1.4459894e-24   -216.86924            0   -216.86924   -215297.63 
     390 1.562848e-24   -216.86924            0   -216.86924   -215297.63 
     400 1.5651728e-24   -216.86924            0   -216.86924   -215297.63 
     410 1.6688066e-24   -216.86924            0   -216.86924   -215297.63 
     420 1.507208e-24   -216.86924            0   -216.86924   -215297.63 
     430 1.9209918e-24   -216.86924            0   -216.86924   -215297.63 
     440 1.6858998e-24   -216.86924            0   -216.86924   -215297.63 
     450 1.7077731e-24   -216.86924            0   -216.86924   -215297.63 
     460 2.0343005e-24   -216.86924            0   -216.86924   -215297.63 
     470 1.944946e-24   -216.86924            0   -216.86924   -215297.63 
     480 1.9756339e-24   -216.86924            0   -216.86924   -215297.63 
     490 2.2460605e-24   -216.86924            0   -216.86924   -215297.63 
     500 2.0856224e-24   -216.86924            0   -216.86924   -215297.63 
     510 1.9610551e-24   -216.86924            0   -216.86924   -215297.63 
     520 2.4225868e-24   -216.86924            0   -216.86924   -215297.63 
     530 2.0465837e-24   -216.86924            0   -216.86924   -215297.63 
     540 2.7031252e-24   -216.86924            0   -216.86924   -215297.63 
     550 2.6171811e-24   -216.86924            0   -216.86924   -215297.63 
     560 2.9665408e-24   -216.86924            0   -216.86924   -215297.63 
     570 3.0739644e-24   -216.86924            0   -216.86924   -215297.63 
     580 2.7159394e-24   -216.86924            0   -216.86924   -215297.63 
     590 3.3750993e-24   -216.86924            0   -216.86924   -215297.63 
     600 2.5875491e-24   -216.86924            0   -216.86924   -215297.63 
     610 3.2700363e-24   -216.86924            0   -216.86924   -215297.63 
     620  3.08843e-24   -216.86924            0   -216.86924   -215297.63 
     630 3.1092532e-24   -216.86924            0   -216.86924   -215297.63 
     640 3.5607722e-24   -216.86924            0   -216.86924   -215297.63 
     650 3.2978084e-24   -216.86924            0   -216.86924   -215297.63 
     660 3.6221108e-24   -216.86924            0   -216.86924   -215297.63 
     670 3.591457e-24   -216.86924            0   -216.86924   -215297.63 
     680 3.3925534e-24   -216.86924            0   -216.86924   -215297.63 
     690 3.6794201e-24   -216.86924            0   -216.86924   -215297.63 
     700 3.7466835e-24   -216.86924            0   -216.86924   -215297.63 
     710 3.7306091e-24   -216.86924            0   -216.86924   -215297.63 
     720 4.1561084e-24   -216.86924            0   -216.86924   -215297.63 
     730 3.7799452e-24   -216.86924            0   -216.86924   -215297.63 
     740 4.2014642e-24   -216.86924            0   -216.86924   -215297.63 
     750 4.3659643e-24   -216.86924            0   -216.86924   -215297.63 
     760 3.9432386e-24   -216.86924            0   -216.86924   -215297.63 
     770 4.2600213e-24   -216.86924            0   -216.86924   -215297.63 
     780 4.7370944e-24   -216.86924            0   -216.86924   -215297.63 
     790 4.4314948e-24   -216.86924            0   -216.86924   -215297.63 
     800 5.4747761e-24   -216.86924            0   -216.86924   -215297.63 
     810 4.3642368e-24   -216.86924            0   -216.86924   -215297.63 
     820 5.577153e-24   -216.86924            0   -216.86924   -215297.63 
     830 5.0143535e-24   -216.86924            0   -216.86924   -215297.63 
     840 4.9628446e-24   -216.86924            0   -216.86924   -215297.63 
     850 5.166633e-24   -216.86924            0   -216.86924   -215297.63 
     860 4.6682821e-24   -216.86924            0   -216.86924   -215297.63 
     870 5.7851439e-24   -216.86924            0   -216.86924   -215297.63 
     880 5.017625e-24   -216.86924            0   -216.86924   -215297.63 
     890 5.5721301e-24   -216.86924            0   -216.86924   -215297.63 
     900 5.7925511e-24   -216.86924            0   -216.86924   -215297.63 
     910 5.7337163e-24   -216.86924            0   -216.86924   -215297.63 
     920 5.3060987e-24   -216.86924            0   -216.86924   -215297.63 
     930 5.8617884e-24   -216.86924            0   -216.86924   -215297.63 
     940 4.9638383e-24   -216.86924            0   -216.86924   -215297.63 
     950 6.4842692e-24   -216.86924            0   -216.86924   -215297.63 
     960 5.3431943e-24   -216.86924            0   -216.86924   -215297.63 
     970 5.9864882e-24   -216.86924            0   -216.86924   -215297.63 
     980 6.9068603e-24   -216.86924            0   -216.86924   -215297.63 
     990 6.2003904e-24   -216.86924            0   -216.86924   -215297.63 
    1000 6.087693e-24   -216.86924            0   -216.86924   -215297.63 
    1001 5.905996e-24   -216.86924            0   -216.86924   -215297.63 
Loop time of 1.13441 on 4 procs for 1000 steps with 54 atoms

Performance: 380.815 ns/day, 0.063 hours/ns, 881.517 timesteps/s
76.1% CPU use with 4 MPI tasks x no OpenMP threads

MPI task timing breakdown:
Section |  min time  |  avg time  |  max time  |%varavg| %total
---------------------------------------------------------------
Pair    | 0.30713    | 0.35022    | 0.40338    |   6.2 | 30.87
Neigh   | 0          | 0          | 0          |   0.0 |  0.00
Comm    | 0.2439     | 0.30768    | 0.35606    |   7.3 | 27.12
Output  | 0.26516    | 0.29004    | 0.36109    |   7.6 | 25.57
Modify  | 0.042998   | 0.076893   | 0.10584    |   8.6 |  6.78
Other   |            | 0.1096     |            |       |  9.66

Nlocal:    13.5 ave 15 max 12 min
Histogram: 2 0 0 0 0 0 0 0 0 2
Nghost:    162.5 ave 164 max 161 min
Histogram: 2 0 0 0 0 0 0 0 0 2
Neighs:    0 ave 0 max 0 min
Histogram: 4 0 0 0 0 0 0 0 0 0
FullNghs:  351 ave 390 max 312 min
Histogram: 2 0 0 0 0 0 0 0 0 2

Total # of neighbors = 1404
Ave neighs/atom = 26
Neighbor list builds = 0
Dangerous builds = 0
unfix            1

print            "@@@@ (lattice parameter, rho, energy per atom):  $x $r $P"
@@@@ (lattice parameter, rho, energy per atom):  3.276 0.056885072561297 -4.01609708718506

clear
next             x
jump             in.bcc
# bulk Silicon lattice
units            metal
boundary         p p p

atom_style       atomic

variable         x index 3.276 3.277 3.278 3.279 3.280 3.281 3.282 3.283 3.284

#lattice          diamond $x
#lattice         diamond 5.431
#lattice          fcc 3.615
lattice          bcc 3.28
Lattice spacing in x,y,z = 3.28 3.28 3.28
#lattice         sc 2.60

region           box block 0 3 0 3 0 3
create_box       1 box
Created orthogonal box = (0 0 0) to (9.84 9.84 9.84)
  2 by 1 by 2 MPI processor grid
create_atoms     1 box
Created 54 atoms

pair_style       sw
pair_coeff       * * Si.sw Si
Reading potential file Si.sw with DATE: 2007-06-11
mass             1 28
neighbor         1.0 bin
neighbor         1.0 bin
neigh_modify     every 1 delay 5 check yes

variable         P equal pe/54
variable         r equal 54/($x*3)^3
variable         r equal 54/(3.277*3)^3
timestep         0.005
thermo           10

min_style        sd
minimize         1.0e-12 1.0e-12 1000 1000
WARNING: Resetting reneighboring criteria during minimization (../min.cpp:168)
Neighbor list info ...
  1 neighbor list requests
  update every 1 steps, delay 0 steps, check yes
  max neighbors/atom: 2000, page size: 100000
  master list distance cutoff = 4.77118
  ghost atom cutoff = 4.77118
  binsize = 2.38559 -> bins = 5 5 5
Memory usage per processor = 3.61073 Mbytes
Step Temp E_pair E_mol TotEng Press 
       0            0   -216.86924            0   -216.86924   -215297.63 
       1            0   -216.86924            0   -216.86924   -215297.63 
Loop time of 0.00290644 on 4 procs for 1 steps with 54 atoms

68.8% CPU use with 4 MPI tasks x no OpenMP threads

Minimization stats:
  Stopping criterion = energy tolerance
  Energy initial, next-to-last, final = 
        -216.869242708     -216.869242708     -216.869242708
  Force two-norm initial, final = 7.29848e-14 7.05291e-14
  Force max component initial, final = 1.53523e-14 1.31006e-14
  Final line search alpha, max atom move = 1 1.31006e-14
  Iterations, force evaluations = 1 2

MPI task timing breakdown:
Section |  min time  |  avg time  |  max time  |%varavg| %total
---------------------------------------------------------------
Pair    | 0.00081301 | 0.0016871  | 0.0026202  |   1.9 | 58.05
Neigh   | 0          | 0          | 0          |   0.0 |  0.00
Comm    | 2.4319e-05 | 0.00095683 | 0.0018311  |   2.6 | 32.92
Output  | 0          | 0          | 0          |   0.0 |  0.00
Modify  | 0          | 0          | 0          |   0.0 |  0.00
Other   |            | 0.0002625  |            |       |  9.03

Nlocal:    13.5 ave 15 max 12 min
Histogram: 2 0 0 0 0 0 0 0 0 2
Nghost:    162.5 ave 164 max 161 min
Histogram: 2 0 0 0 0 0 0 0 0 2
Neighs:    0 ave 0 max 0 min
Histogram: 4 0 0 0 0 0 0 0 0 0
FullNghs:  351 ave 390 max 312 min
Histogram: 2 0 0 0 0 0 0 0 0 2

Total # of neighbors = 1404
Ave neighs/atom = 26
Neighbor list builds = 0
Dangerous builds = 0

compute          3 all pe/atom
compute          4 all ke/atom
compute          5 all coord/atom 3.0
dump             1 all cfg 1 bcc.*.cfg mass type xs ys zs id type c_3 c_4 c_5

fix              1 all nvt temp 0.1 0.1 2 drag 0.2
run 1000
Neighbor list info ...
  2 neighbor list requests
  update every 1 steps, delay 5 steps, check yes
  max neighbors/atom: 2000, page size: 100000
  master list distance cutoff = 4.77118
  ghost atom cutoff = 4.77118
  binsize = 2.38559 -> bins = 5 5 5
Memory usage per processor = 4.23688 Mbytes
Step Temp E_pair E_mol TotEng Press 
       1            0   -216.86924            0   -216.86924   -215297.63 
      10 9.9249986e-26   -216.86924            0   -216.86924   -215297.63 
      20 6.8294608e-26   -216.86924            0   -216.86924   -215297.63 
      30 7.6981109e-26   -216.86924            0   -216.86924   -215297.63 
      40 9.5323956e-26   -216.86924            0   -216.86924   -215297.63 
      50 1.3360602e-25   -216.86924            0   -216.86924   -215297.63 
      60 1.4900582e-25   -216.86924            0   -216.86924   -215297.63 
      70 1.6971695e-25   -216.86924            0   -216.86924   -215297.63 
      80 1.7443835e-25   -216.86924            0   -216.86924   -215297.63 
      90 2.1196076e-25   -216.86924            0   -216.86924   -215297.63 
     100 2.4159419e-25   -216.86924            0   -216.86924   -215297.63 
     110 2.3572001e-25   -216.86924            0   -216.86924   -215297.63 
     120 3.1043743e-25   -216.86924            0   -216.86924   -215297.63 
     130 3.6605594e-25   -216.86924            0   -216.86924   -215297.63 
     140 3.7783144e-25   -216.86924            0   -216.86924   -215297.63 
     150 4.1417651e-25   -216.86924            0   -216.86924   -215297.63 
     160 3.7735149e-25   -216.86924            0   -216.86924   -215297.63 
     170 5.1762829e-25   -216.86924            0   -216.86924   -215297.63 
     180 4.7126886e-25   -216.86924            0   -216.86924   -215297.63 
     190 5.511636e-25   -216.86924            0   -216.86924   -215297.63 
     200 5.6113862e-25   -216.86924            0   -216.86924   -215297.63 
     210 6.7129022e-25   -216.86924            0   -216.86924   -215297.63 
     220 6.1757512e-25   -216.86924            0   -216.86924   -215297.63 
     230 7.2505254e-25   -216.86924            0   -216.86924   -215297.63 
     240 7.0885087e-25   -216.86924            0   -216.86924   -215297.63 
     250 7.3951993e-25   -216.86924            0   -216.86924   -215297.63 
     260 7.9820999e-25   -216.86924            0   -216.86924   -215297.63 
     270 7.9382448e-25   -216.86924            0   -216.86924   -215297.63 
     280 9.3033669e-25   -216.86924            0   -216.86924   -215297.63 
     290 9.0232093e-25   -216.86924            0   -216.86924   -215297.63 
     300 9.8226003e-25   -216.86924            0   -216.86924   -215297.63 
     310 1.1601725e-24   -216.86924            0   -216.86924   -215297.63 
     320 1.0782481e-24   -216.86924            0   -216.86924   -215297.63 
     330 1.0484553e-24   -216.86924            0   -216.86924   -215297.63 
     340 1.1918607e-24   -216.86924            0   -216.86924   -215297.63 
     350 1.2926476e-24   -216.86924            0   -216.86924   -215297.63 
     360 1.2574044e-24   -216.86924            0   -216.86924   -215297.63 
     370 1.3252671e-24   -216.86924            0   -216.86924   -215297.63 
     380 1.4459894e-24   -216.86924            0   -216.86924   -215297.63 
     390 1.562848e-24   -216.86924            0   -216.86924   -215297.63 
     400 1.5651728e-24   -216.86924            0   -216.86924   -215297.63 
     410 1.6688066e-24   -216.86924            0   -216.86924   -215297.63 
     420 1.507208e-24   -216.86924            0   -216.86924   -215297.63 
     430 1.9209918e-24   -216.86924            0   -216.86924   -215297.63 
     440 1.6858998e-24   -216.86924            0   -216.86924   -215297.63 
     450 1.7077731e-24   -216.86924            0   -216.86924   -215297.63 
     460 2.0343005e-24   -216.86924            0   -216.86924   -215297.63 
     470 1.944946e-24   -216.86924            0   -216.86924   -215297.63 
     480 1.9756339e-24   -216.86924            0   -216.86924   -215297.63 
     490 2.2460605e-24   -216.86924            0   -216.86924   -215297.63 
     500 2.0856224e-24   -216.86924            0   -216.86924   -215297.63 
     510 1.9610551e-24   -216.86924            0   -216.86924   -215297.63 
     520 2.4225868e-24   -216.86924            0   -216.86924   -215297.63 
     530 2.0465837e-24   -216.86924            0   -216.86924   -215297.63 
     540 2.7031252e-24   -216.86924            0   -216.86924   -215297.63 
     550 2.6171811e-24   -216.86924            0   -216.86924   -215297.63 
     560 2.9665408e-24   -216.86924            0   -216.86924   -215297.63 
     570 3.0739644e-24   -216.86924            0   -216.86924   -215297.63 
     580 2.7159394e-24   -216.86924            0   -216.86924   -215297.63 
     590 3.3750993e-24   -216.86924            0   -216.86924   -215297.63 
     600 2.5875491e-24   -216.86924            0   -216.86924   -215297.63 
     610 3.2700363e-24   -216.86924            0   -216.86924   -215297.63 
     620  3.08843e-24   -216.86924            0   -216.86924   -215297.63 
     630 3.1092532e-24   -216.86924            0   -216.86924   -215297.63 
     640 3.5607722e-24   -216.86924            0   -216.86924   -215297.63 
     650 3.2978084e-24   -216.86924            0   -216.86924   -215297.63 
     660 3.6221108e-24   -216.86924            0   -216.86924   -215297.63 
     670 3.591457e-24   -216.86924            0   -216.86924   -215297.63 
     680 3.3925534e-24   -216.86924            0   -216.86924   -215297.63 
     690 3.6794201e-24   -216.86924            0   -216.86924   -215297.63 
     700 3.7466835e-24   -216.86924            0   -216.86924   -215297.63 
     710 3.7306091e-24   -216.86924            0   -216.86924   -215297.63 
     720 4.1561084e-24   -216.86924            0   -216.86924   -215297.63 
     730 3.7799452e-24   -216.86924            0   -216.86924   -215297.63 
     740 4.2014642e-24   -216.86924            0   -216.86924   -215297.63 
     750 4.3659643e-24   -216.86924            0   -216.86924   -215297.63 
     760 3.9432386e-24   -216.86924            0   -216.86924   -215297.63 
     770 4.2600213e-24   -216.86924            0   -216.86924   -215297.63 
     780 4.7370944e-24   -216.86924            0   -216.86924   -215297.63 
     790 4.4314948e-24   -216.86924            0   -216.86924   -215297.63 
     800 5.4747761e-24   -216.86924            0   -216.86924   -215297.63 
     810 4.3642368e-24   -216.86924            0   -216.86924   -215297.63 
     820 5.577153e-24   -216.86924            0   -216.86924   -215297.63 
     830 5.0143535e-24   -216.86924            0   -216.86924   -215297.63 
     840 4.9628446e-24   -216.86924            0   -216.86924   -215297.63 
     850 5.166633e-24   -216.86924            0   -216.86924   -215297.63 
     860 4.6682821e-24   -216.86924            0   -216.86924   -215297.63 
     870 5.7851439e-24   -216.86924            0   -216.86924   -215297.63 
     880 5.017625e-24   -216.86924            0   -216.86924   -215297.63 
     890 5.5721301e-24   -216.86924            0   -216.86924   -215297.63 
     900 5.7925511e-24   -216.86924            0   -216.86924   -215297.63 
     910 5.7337163e-24   -216.86924            0   -216.86924   -215297.63 
     920 5.3060987e-24   -216.86924            0   -216.86924   -215297.63 
     930 5.8617884e-24   -216.86924            0   -216.86924   -215297.63 
     940 4.9638383e-24   -216.86924            0   -216.86924   -215297.63 
     950 6.4842692e-24   -216.86924            0   -216.86924   -215297.63 
     960 5.3431943e-24   -216.86924            0   -216.86924   -215297.63 
     970 5.9864882e-24   -216.86924            0   -216.86924   -215297.63 
     980 6.9068603e-24   -216.86924            0   -216.86924   -215297.63 
     990 6.2003904e-24   -216.86924            0   -216.86924   -215297.63 
    1000 6.087693e-24   -216.86924            0   -216.86924   -215297.63 
    1001 5.905996e-24   -216.86924            0   -216.86924   -215297.63 
Loop time of 1.34412 on 4 procs for 1000 steps with 54 atoms

Performance: 321.401 ns/day, 0.075 hours/ns, 743.984 timesteps/s
75.7% CPU use with 4 MPI tasks x no OpenMP threads

MPI task timing breakdown:
Section |  min time  |  avg time  |  max time  |%varavg| %total
---------------------------------------------------------------
Pair    | 0.30342    | 0.36232    | 0.45732    |   9.5 | 26.96
Neigh   | 0          | 0          | 0          |   0.0 |  0.00
Comm    | 0.26563    | 0.31538    | 0.34364    |   5.5 | 23.46
Output  | 0.39338    | 0.46322    | 0.57219    |   9.8 | 34.46
Modify  | 0.02762    | 0.057122   | 0.076764   |   8.3 |  4.25
Other   |            | 0.1461     |            |       | 10.87

Nlocal:    13.5 ave 15 max 12 min
Histogram: 2 0 0 0 0 0 0 0 0 2
Nghost:    162.5 ave 164 max 161 min
Histogram: 2 0 0 0 0 0 0 0 0 2
Neighs:    0 ave 0 max 0 min
Histogram: 4 0 0 0 0 0 0 0 0 0
FullNghs:  351 ave 390 max 312 min
Histogram: 2 0 0 0 0 0 0 0 0 2

Total # of neighbors = 1404
Ave neighs/atom = 26
Neighbor list builds = 0
Dangerous builds = 0
unfix            1

print            "@@@@ (lattice parameter, rho, energy per atom):  $x $r $P"
@@@@ (lattice parameter, rho, energy per atom):  3.277 0.0568330117903723 -4.01609708718506

clear
next             x
jump             in.bcc
# bulk Silicon lattice
units            metal
boundary         p p p

atom_style       atomic

variable         x index 3.276 3.277 3.278 3.279 3.280 3.281 3.282 3.283 3.284

#lattice          diamond $x
#lattice         diamond 5.431
#lattice          fcc 3.615
lattice          bcc 3.28
Lattice spacing in x,y,z = 3.28 3.28 3.28
#lattice         sc 2.60

region           box block 0 3 0 3 0 3
create_box       1 box
Created orthogonal box = (0 0 0) to (9.84 9.84 9.84)
  2 by 1 by 2 MPI processor grid
create_atoms     1 box
Created 54 atoms

pair_style       sw
pair_coeff       * * Si.sw Si
Reading potential file Si.sw with DATE: 2007-06-11
mass             1 28
neighbor         1.0 bin
neighbor         1.0 bin
neigh_modify     every 1 delay 5 check yes

variable         P equal pe/54
variable         r equal 54/($x*3)^3
variable         r equal 54/(3.278*3)^3
timestep         0.005
thermo           10

min_style        sd
minimize         1.0e-12 1.0e-12 1000 1000
WARNING: Resetting reneighboring criteria during minimization (../min.cpp:168)
Neighbor list info ...
  1 neighbor list requests
  update every 1 steps, delay 0 steps, check yes
  max neighbors/atom: 2000, page size: 100000
  master list distance cutoff = 4.77118
  ghost atom cutoff = 4.77118
  binsize = 2.38559 -> bins = 5 5 5
Memory usage per processor = 3.61073 Mbytes
Step Temp E_pair E_mol TotEng Press 
       0            0   -216.86924            0   -216.86924   -215297.63 
       1            0   -216.86924            0   -216.86924   -215297.63 
Loop time of 0.00172764 on 4 procs for 1 steps with 54 atoms

115.8% CPU use with 4 MPI tasks x no OpenMP threads

Minimization stats:
  Stopping criterion = energy tolerance
  Energy initial, next-to-last, final = 
        -216.869242708     -216.869242708     -216.869242708
  Force two-norm initial, final = 7.29848e-14 7.05291e-14
  Force max component initial, final = 1.53523e-14 1.31006e-14
  Final line search alpha, max atom move = 1 1.31006e-14
  Iterations, force evaluations = 1 2

MPI task timing breakdown:
Section |  min time  |  avg time  |  max time  |%varavg| %total
---------------------------------------------------------------
Pair    | 0.00080276 | 0.0010608  | 0.0016353  |   1.0 | 61.40
Neigh   | 0          | 0          | 0          |   0.0 |  0.00
Comm    | 2.4796e-05 | 0.00059915 | 0.00085855 |   1.4 | 34.68
Output  | 0          | 0          | 0          |   0.0 |  0.00
Modify  | 0          | 0          | 0          |   0.0 |  0.00
Other   |            | 6.771e-05  |            |       |  3.92

Nlocal:    13.5 ave 15 max 12 min
Histogram: 2 0 0 0 0 0 0 0 0 2
Nghost:    162.5 ave 164 max 161 min
Histogram: 2 0 0 0 0 0 0 0 0 2
Neighs:    0 ave 0 max 0 min
Histogram: 4 0 0 0 0 0 0 0 0 0
FullNghs:  351 ave 390 max 312 min
Histogram: 2 0 0 0 0 0 0 0 0 2

Total # of neighbors = 1404
Ave neighs/atom = 26
Neighbor list builds = 0
Dangerous builds = 0

compute          3 all pe/atom
compute          4 all ke/atom
compute          5 all coord/atom 3.0
dump             1 all cfg 1 bcc.*.cfg mass type xs ys zs id type c_3 c_4 c_5

fix              1 all nvt temp 0.1 0.1 2 drag 0.2
run 1000
Neighbor list info ...
  2 neighbor list requests
  update every 1 steps, delay 5 steps, check yes
  max neighbors/atom: 2000, page size: 100000
  master list distance cutoff = 4.77118
  ghost atom cutoff = 4.77118
  binsize = 2.38559 -> bins = 5 5 5
Memory usage per processor = 4.23688 Mbytes
Step Temp E_pair E_mol TotEng Press 
       1            0   -216.86924            0   -216.86924   -215297.63 
      10 9.9249986e-26   -216.86924            0   -216.86924   -215297.63 
      20 6.8294608e-26   -216.86924            0   -216.86924   -215297.63 
      30 7.6981109e-26   -216.86924            0   -216.86924   -215297.63 
      40 9.5323956e-26   -216.86924            0   -216.86924   -215297.63 
      50 1.3360602e-25   -216.86924            0   -216.86924   -215297.63 
      60 1.4900582e-25   -216.86924            0   -216.86924   -215297.63 
      70 1.6971695e-25   -216.86924            0   -216.86924   -215297.63 
      80 1.7443835e-25   -216.86924            0   -216.86924   -215297.63 
      90 2.1196076e-25   -216.86924            0   -216.86924   -215297.63 
     100 2.4159419e-25   -216.86924            0   -216.86924   -215297.63 
     110 2.3572001e-25   -216.86924            0   -216.86924   -215297.63 
     120 3.1043743e-25   -216.86924            0   -216.86924   -215297.63 
     130 3.6605594e-25   -216.86924            0   -216.86924   -215297.63 
     140 3.7783144e-25   -216.86924            0   -216.86924   -215297.63 
     150 4.1417651e-25   -216.86924            0   -216.86924   -215297.63 
     160 3.7735149e-25   -216.86924            0   -216.86924   -215297.63 
     170 5.1762829e-25   -216.86924            0   -216.86924   -215297.63 
     180 4.7126886e-25   -216.86924            0   -216.86924   -215297.63 
     190 5.511636e-25   -216.86924            0   -216.86924   -215297.63 
     200 5.6113862e-25   -216.86924            0   -216.86924   -215297.63 
     210 6.7129022e-25   -216.86924            0   -216.86924   -215297.63 
     220 6.1757512e-25   -216.86924            0   -216.86924   -215297.63 
     230 7.2505254e-25   -216.86924            0   -216.86924   -215297.63 
     240 7.0885087e-25   -216.86924            0   -216.86924   -215297.63 
     250 7.3951993e-25   -216.86924            0   -216.86924   -215297.63 
     260 7.9820999e-25   -216.86924            0   -216.86924   -215297.63 
     270 7.9382448e-25   -216.86924            0   -216.86924   -215297.63 
     280 9.3033669e-25   -216.86924            0   -216.86924   -215297.63 
     290 9.0232093e-25   -216.86924            0   -216.86924   -215297.63 
     300 9.8226003e-25   -216.86924            0   -216.86924   -215297.63 
     310 1.1601725e-24   -216.86924            0   -216.86924   -215297.63 
     320 1.0782481e-24   -216.86924            0   -216.86924   -215297.63 
     330 1.0484553e-24   -216.86924            0   -216.86924   -215297.63 
     340 1.1918607e-24   -216.86924            0   -216.86924   -215297.63 
     350 1.2926476e-24   -216.86924            0   -216.86924   -215297.63 
     360 1.2574044e-24   -216.86924            0   -216.86924   -215297.63 
     370 1.3252671e-24   -216.86924            0   -216.86924   -215297.63 
     380 1.4459894e-24   -216.86924            0   -216.86924   -215297.63 
     390 1.562848e-24   -216.86924            0   -216.86924   -215297.63 
     400 1.5651728e-24   -216.86924            0   -216.86924   -215297.63 
     410 1.6688066e-24   -216.86924            0   -216.86924   -215297.63 
     420 1.507208e-24   -216.86924            0   -216.86924   -215297.63 
     430 1.9209918e-24   -216.86924            0   -216.86924   -215297.63 
     440 1.6858998e-24   -216.86924            0   -216.86924   -215297.63 
     450 1.7077731e-24   -216.86924            0   -216.86924   -215297.63 
     460 2.0343005e-24   -216.86924            0   -216.86924   -215297.63 
     470 1.944946e-24   -216.86924            0   -216.86924   -215297.63 
     480 1.9756339e-24   -216.86924            0   -216.86924   -215297.63 
     490 2.2460605e-24   -216.86924            0   -216.86924   -215297.63 
     500 2.0856224e-24   -216.86924            0   -216.86924   -215297.63 
     510 1.9610551e-24   -216.86924            0   -216.86924   -215297.63 
     520 2.4225868e-24   -216.86924            0   -216.86924   -215297.63 
     530 2.0465837e-24   -216.86924            0   -216.86924   -215297.63 
     540 2.7031252e-24   -216.86924            0   -216.86924   -215297.63 
     550 2.6171811e-24   -216.86924            0   -216.86924   -215297.63 
     560 2.9665408e-24   -216.86924            0   -216.86924   -215297.63 
     570 3.0739644e-24   -216.86924            0   -216.86924   -215297.63 
     580 2.7159394e-24   -216.86924            0   -216.86924   -215297.63 
     590 3.3750993e-24   -216.86924            0   -216.86924   -215297.63 
     600 2.5875491e-24   -216.86924            0   -216.86924   -215297.63 
     610 3.2700363e-24   -216.86924            0   -216.86924   -215297.63 
     620  3.08843e-24   -216.86924            0   -216.86924   -215297.63 
     630 3.1092532e-24   -216.86924            0   -216.86924   -215297.63 
     640 3.5607722e-24   -216.86924            0   -216.86924   -215297.63 
     650 3.2978084e-24   -216.86924            0   -216.86924   -215297.63 
     660 3.6221108e-24   -216.86924            0   -216.86924   -215297.63 
     670 3.591457e-24   -216.86924            0   -216.86924   -215297.63 
     680 3.3925534e-24   -216.86924            0   -216.86924   -215297.63 
     690 3.6794201e-24   -216.86924            0   -216.86924   -215297.63 
     700 3.7466835e-24   -216.86924            0   -216.86924   -215297.63 
     710 3.7306091e-24   -216.86924            0   -216.86924   -215297.63 
     720 4.1561084e-24   -216.86924            0   -216.86924   -215297.63 
     730 3.7799452e-24   -216.86924            0   -216.86924   -215297.63 
     740 4.2014642e-24   -216.86924            0   -216.86924   -215297.63 
     750 4.3659643e-24   -216.86924            0   -216.86924   -215297.63 
     760 3.9432386e-24   -216.86924            0   -216.86924   -215297.63 
     770 4.2600213e-24   -216.86924            0   -216.86924   -215297.63 
     780 4.7370944e-24   -216.86924            0   -216.86924   -215297.63 
     790 4.4314948e-24   -216.86924            0   -216.86924   -215297.63 
     800 5.4747761e-24   -216.86924            0   -216.86924   -215297.63 
     810 4.3642368e-24   -216.86924            0   -216.86924   -215297.63 
     820 5.577153e-24   -216.86924            0   -216.86924   -215297.63 
     830 5.0143535e-24   -216.86924            0   -216.86924   -215297.63 
     840 4.9628446e-24   -216.86924            0   -216.86924   -215297.63 
     850 5.166633e-24   -216.86924            0   -216.86924   -215297.63 
     860 4.6682821e-24   -216.86924            0   -216.86924   -215297.63 
     870 5.7851439e-24   -216.86924            0   -216.86924   -215297.63 
     880 5.017625e-24   -216.86924            0   -216.86924   -215297.63 
     890 5.5721301e-24   -216.86924            0   -216.86924   -215297.63 
     900 5.7925511e-24   -216.86924            0   -216.86924   -215297.63 
     910 5.7337163e-24   -216.86924            0   -216.86924   -215297.63 
     920 5.3060987e-24   -216.86924            0   -216.86924   -215297.63 
     930 5.8617884e-24   -216.86924            0   -216.86924   -215297.63 
     940 4.9638383e-24   -216.86924            0   -216.86924   -215297.63 
     950 6.4842692e-24   -216.86924            0   -216.86924   -215297.63 
     960 5.3431943e-24   -216.86924            0   -216.86924   -215297.63 
     970 5.9864882e-24   -216.86924            0   -216.86924   -215297.63 
     980 6.9068603e-24   -216.86924            0   -216.86924   -215297.63 
     990 6.2003904e-24   -216.86924            0   -216.86924   -215297.63 
    1000 6.087693e-24   -216.86924            0   -216.86924   -215297.63 
    1001 5.905996e-24   -216.86924            0   -216.86924   -215297.63 
Loop time of 1.2494 on 4 procs for 1000 steps with 54 atoms

Performance: 345.766 ns/day, 0.069 hours/ns, 800.384 timesteps/s
75.2% CPU use with 4 MPI tasks x no OpenMP threads

MPI task timing breakdown:
Section |  min time  |  avg time  |  max time  |%varavg| %total
---------------------------------------------------------------
Pair    | 0.29451    | 0.37604    | 0.46149    |   9.6 | 30.10
Neigh   | 0          | 0          | 0          |   0.0 |  0.00
Comm    | 0.29006    | 0.33288    | 0.40706    |   8.0 | 26.64
Output  | 0.33806    | 0.36443    | 0.42799    |   6.1 | 29.17
Modify  | 0.027848   | 0.049438   | 0.067428   |   6.5 |  3.96
Other   |            | 0.1266     |            |       | 10.13

Nlocal:    13.5 ave 15 max 12 min
Histogram: 2 0 0 0 0 0 0 0 0 2
Nghost:    162.5 ave 164 max 161 min
Histogram: 2 0 0 0 0 0 0 0 0 2
Neighs:    0 ave 0 max 0 min
Histogram: 4 0 0 0 0 0 0 0 0 0
FullNghs:  351 ave 390 max 312 min
Histogram: 2 0 0 0 0 0 0 0 0 2

Total # of neighbors = 1404
Ave neighs/atom = 26
Neighbor list builds = 0
Dangerous builds = 0
unfix            1

print            "@@@@ (lattice parameter, rho, energy per atom):  $x $r $P"
@@@@ (lattice parameter, rho, energy per atom):  3.278 0.05678101452755 -4.01609708718506

clear
next             x
jump             in.bcc
# bulk Silicon lattice
units            metal
boundary         p p p

atom_style       atomic

variable         x index 3.276 3.277 3.278 3.279 3.280 3.281 3.282 3.283 3.284

#lattice          diamond $x
#lattice         diamond 5.431
#lattice          fcc 3.615
lattice          bcc 3.28
Lattice spacing in x,y,z = 3.28 3.28 3.28
#lattice         sc 2.60

region           box block 0 3 0 3 0 3
create_box       1 box
Created orthogonal box = (0 0 0) to (9.84 9.84 9.84)
  2 by 1 by 2 MPI processor grid
create_atoms     1 box
Created 54 atoms

pair_style       sw
pair_coeff       * * Si.sw Si
Reading potential file Si.sw with DATE: 2007-06-11
mass             1 28
neighbor         1.0 bin
neighbor         1.0 bin
neigh_modify     every 1 delay 5 check yes

variable         P equal pe/54
variable         r equal 54/($x*3)^3
variable         r equal 54/(3.279*3)^3
timestep         0.005
thermo           10

min_style        sd
minimize         1.0e-12 1.0e-12 1000 1000
WARNING: Resetting reneighboring criteria during minimization (../min.cpp:168)
Neighbor list info ...
  1 neighbor list requests
  update every 1 steps, delay 0 steps, check yes
  max neighbors/atom: 2000, page size: 100000
  master list distance cutoff = 4.77118
  ghost atom cutoff = 4.77118
  binsize = 2.38559 -> bins = 5 5 5
Memory usage per processor = 3.61073 Mbytes
Step Temp E_pair E_mol TotEng Press 
       0            0   -216.86924            0   -216.86924   -215297.63 
       1            0   -216.86924            0   -216.86924   -215297.63 
Loop time of 0.00108141 on 4 procs for 1 steps with 54 atoms

92.5% CPU use with 4 MPI tasks x no OpenMP threads

Minimization stats:
  Stopping criterion = energy tolerance
  Energy initial, next-to-last, final = 
        -216.869242708     -216.869242708     -216.869242708
  Force two-norm initial, final = 7.29848e-14 7.05291e-14
  Force max component initial, final = 1.53523e-14 1.31006e-14
  Final line search alpha, max atom move = 1 1.31006e-14
  Iterations, force evaluations = 1 2

MPI task timing breakdown:
Section |  min time  |  avg time  |  max time  |%varavg| %total
---------------------------------------------------------------
Pair    | 0.00080204 | 0.00090164 | 0.0010016  |   0.3 | 83.38
Neigh   | 0          | 0          | 0          |   0.0 |  0.00
Comm    | 1.7643e-05 | 0.00011802 | 0.00021744 |   0.9 | 10.91
Output  | 0          | 0          | 0          |   0.0 |  0.00
Modify  | 0          | 0          | 0          |   0.0 |  0.00
Other   |            | 6.175e-05  |            |       |  5.71

Nlocal:    13.5 ave 15 max 12 min
Histogram: 2 0 0 0 0 0 0 0 0 2
Nghost:    162.5 ave 164 max 161 min
Histogram: 2 0 0 0 0 0 0 0 0 2
Neighs:    0 ave 0 max 0 min
Histogram: 4 0 0 0 0 0 0 0 0 0
FullNghs:  351 ave 390 max 312 min
Histogram: 2 0 0 0 0 0 0 0 0 2

Total # of neighbors = 1404
Ave neighs/atom = 26
Neighbor list builds = 0
Dangerous builds = 0

compute          3 all pe/atom
compute          4 all ke/atom
compute          5 all coord/atom 3.0
dump             1 all cfg 1 bcc.*.cfg mass type xs ys zs id type c_3 c_4 c_5

fix              1 all nvt temp 0.1 0.1 2 drag 0.2
run 1000
Neighbor list info ...
  2 neighbor list requests
  update every 1 steps, delay 5 steps, check yes
  max neighbors/atom: 2000, page size: 100000
  master list distance cutoff = 4.77118
  ghost atom cutoff = 4.77118
  binsize = 2.38559 -> bins = 5 5 5
Memory usage per processor = 4.23688 Mbytes
Step Temp E_pair E_mol TotEng Press 
       1            0   -216.86924            0   -216.86924   -215297.63 
      10 9.9249986e-26   -216.86924            0   -216.86924   -215297.63 
      20 6.8294608e-26   -216.86924            0   -216.86924   -215297.63 
      30 7.6981109e-26   -216.86924            0   -216.86924   -215297.63 
      40 9.5323956e-26   -216.86924            0   -216.86924   -215297.63 
      50 1.3360602e-25   -216.86924            0   -216.86924   -215297.63 
      60 1.4900582e-25   -216.86924            0   -216.86924   -215297.63 
      70 1.6971695e-25   -216.86924            0   -216.86924   -215297.63 
      80 1.7443835e-25   -216.86924            0   -216.86924   -215297.63 
      90 2.1196076e-25   -216.86924            0   -216.86924   -215297.63 
     100 2.4159419e-25   -216.86924            0   -216.86924   -215297.63 
     110 2.3572001e-25   -216.86924            0   -216.86924   -215297.63 
     120 3.1043743e-25   -216.86924            0   -216.86924   -215297.63 
     130 3.6605594e-25   -216.86924            0   -216.86924   -215297.63 
     140 3.7783144e-25   -216.86924            0   -216.86924   -215297.63 
     150 4.1417651e-25   -216.86924            0   -216.86924   -215297.63 
     160 3.7735149e-25   -216.86924            0   -216.86924   -215297.63 
     170 5.1762829e-25   -216.86924            0   -216.86924   -215297.63 
     180 4.7126886e-25   -216.86924            0   -216.86924   -215297.63 
     190 5.511636e-25   -216.86924            0   -216.86924   -215297.63 
     200 5.6113862e-25   -216.86924            0   -216.86924   -215297.63 
     210 6.7129022e-25   -216.86924            0   -216.86924   -215297.63 
     220 6.1757512e-25   -216.86924            0   -216.86924   -215297.63 
     230 7.2505254e-25   -216.86924            0   -216.86924   -215297.63 
     240 7.0885087e-25   -216.86924            0   -216.86924   -215297.63 
     250 7.3951993e-25   -216.86924            0   -216.86924   -215297.63 
     260 7.9820999e-25   -216.86924            0   -216.86924   -215297.63 
     270 7.9382448e-25   -216.86924            0   -216.86924   -215297.63 
     280 9.3033669e-25   -216.86924            0   -216.86924   -215297.63 
     290 9.0232093e-25   -216.86924            0   -216.86924   -215297.63 
     300 9.8226003e-25   -216.86924            0   -216.86924   -215297.63 
     310 1.1601725e-24   -216.86924            0   -216.86924   -215297.63 
     320 1.0782481e-24   -216.86924            0   -216.86924   -215297.63 
     330 1.0484553e-24   -216.86924            0   -216.86924   -215297.63 
     340 1.1918607e-24   -216.86924            0   -216.86924   -215297.63 
     350 1.2926476e-24   -216.86924            0   -216.86924   -215297.63 
     360 1.2574044e-24   -216.86924            0   -216.86924   -215297.63 
     370 1.3252671e-24   -216.86924            0   -216.86924   -215297.63 
     380 1.4459894e-24   -216.86924            0   -216.86924   -215297.63 
     390 1.562848e-24   -216.86924            0   -216.86924   -215297.63 
     400 1.5651728e-24   -216.86924            0   -216.86924   -215297.63 
     410 1.6688066e-24   -216.86924            0   -216.86924   -215297.63 
     420 1.507208e-24   -216.86924            0   -216.86924   -215297.63 
     430 1.9209918e-24   -216.86924            0   -216.86924   -215297.63 
     440 1.6858998e-24   -216.86924            0   -216.86924   -215297.63 
     450 1.7077731e-24   -216.86924            0   -216.86924   -215297.63 
     460 2.0343005e-24   -216.86924            0   -216.86924   -215297.63 
     470 1.944946e-24   -216.86924            0   -216.86924   -215297.63 
     480 1.9756339e-24   -216.86924            0   -216.86924   -215297.63 
     490 2.2460605e-24   -216.86924            0   -216.86924   -215297.63 
     500 2.0856224e-24   -216.86924            0   -216.86924   -215297.63 
     510 1.9610551e-24   -216.86924            0   -216.86924   -215297.63 
     520 2.4225868e-24   -216.86924            0   -216.86924   -215297.63 
     530 2.0465837e-24   -216.86924            0   -216.86924   -215297.63 
     540 2.7031252e-24   -216.86924            0   -216.86924   -215297.63 
     550 2.6171811e-24   -216.86924            0   -216.86924   -215297.63 
     560 2.9665408e-24   -216.86924            0   -216.86924   -215297.63 
     570 3.0739644e-24   -216.86924            0   -216.86924   -215297.63 
     580 2.7159394e-24   -216.86924            0   -216.86924   -215297.63 
     590 3.3750993e-24   -216.86924            0   -216.86924   -215297.63 
     600 2.5875491e-24   -216.86924            0   -216.86924   -215297.63 
     610 3.2700363e-24   -216.86924            0   -216.86924   -215297.63 
     620  3.08843e-24   -216.86924            0   -216.86924   -215297.63 
     630 3.1092532e-24   -216.86924            0   -216.86924   -215297.63 
     640 3.5607722e-24   -216.86924            0   -216.86924   -215297.63 
     650 3.2978084e-24   -216.86924            0   -216.86924   -215297.63 
     660 3.6221108e-24   -216.86924            0   -216.86924   -215297.63 
     670 3.591457e-24   -216.86924            0   -216.86924   -215297.63 
     680 3.3925534e-24   -216.86924            0   -216.86924   -215297.63 
     690 3.6794201e-24   -216.86924            0   -216.86924   -215297.63 
     700 3.7466835e-24   -216.86924            0   -216.86924   -215297.63 
     710 3.7306091e-24   -216.86924            0   -216.86924   -215297.63 
     720 4.1561084e-24   -216.86924            0   -216.86924   -215297.63 
     730 3.7799452e-24   -216.86924            0   -216.86924   -215297.63 
     740 4.2014642e-24   -216.86924            0   -216.86924   -215297.63 
     750 4.3659643e-24   -216.86924            0   -216.86924   -215297.63 
     760 3.9432386e-24   -216.86924            0   -216.86924   -215297.63 
     770 4.2600213e-24   -216.86924            0   -216.86924   -215297.63 
     780 4.7370944e-24   -216.86924            0   -216.86924   -215297.63 
     790 4.4314948e-24   -216.86924            0   -216.86924   -215297.63 
     800 5.4747761e-24   -216.86924            0   -216.86924   -215297.63 
     810 4.3642368e-24   -216.86924            0   -216.86924   -215297.63 
     820 5.577153e-24   -216.86924            0   -216.86924   -215297.63 
     830 5.0143535e-24   -216.86924            0   -216.86924   -215297.63 
     840 4.9628446e-24   -216.86924            0   -216.86924   -215297.63 
     850 5.166633e-24   -216.86924            0   -216.86924   -215297.63 
     860 4.6682821e-24   -216.86924            0   -216.86924   -215297.63 
     870 5.7851439e-24   -216.86924            0   -216.86924   -215297.63 
     880 5.017625e-24   -216.86924            0   -216.86924   -215297.63 
     890 5.5721301e-24   -216.86924            0   -216.86924   -215297.63 
     900 5.7925511e-24   -216.86924            0   -216.86924   -215297.63 
     910 5.7337163e-24   -216.86924            0   -216.86924   -215297.63 
     920 5.3060987e-24   -216.86924            0   -216.86924   -215297.63 
     930 5.8617884e-24   -216.86924            0   -216.86924   -215297.63 
     940 4.9638383e-24   -216.86924            0   -216.86924   -215297.63 
     950 6.4842692e-24   -216.86924            0   -216.86924   -215297.63 
     960 5.3431943e-24   -216.86924            0   -216.86924   -215297.63 
     970 5.9864882e-24   -216.86924            0   -216.86924   -215297.63 
     980 6.9068603e-24   -216.86924            0   -216.86924   -215297.63 
     990 6.2003904e-24   -216.86924            0   -216.86924   -215297.63 
    1000 6.087693e-24   -216.86924            0   -216.86924   -215297.63 
    1001 5.905996e-24   -216.86924            0   -216.86924   -215297.63 
Loop time of 1.31319 on 4 procs for 1000 steps with 54 atoms

Performance: 328.970 ns/day, 0.073 hours/ns, 761.504 timesteps/s
75.6% CPU use with 4 MPI tasks x no OpenMP threads

MPI task timing breakdown:
Section |  min time  |  avg time  |  max time  |%varavg| %total
---------------------------------------------------------------
Pair    | 0.29576    | 0.38215    | 0.50421    |  13.2 | 29.10
Neigh   | 0          | 0          | 0          |   0.0 |  0.00
Comm    | 0.33713    | 0.41346    | 0.49829    |  10.6 | 31.49
Output  | 0.2995     | 0.33251    | 0.42345    |   9.1 | 25.32
Modify  | 0.035867   | 0.045781   | 0.054436   |   3.1 |  3.49
Other   |            | 0.1393     |            |       | 10.61

Nlocal:    13.5 ave 15 max 12 min
Histogram: 2 0 0 0 0 0 0 0 0 2
Nghost:    162.5 ave 164 max 161 min
Histogram: 2 0 0 0 0 0 0 0 0 2
Neighs:    0 ave 0 max 0 min
Histogram: 4 0 0 0 0 0 0 0 0 0
FullNghs:  351 ave 390 max 312 min
Histogram: 2 0 0 0 0 0 0 0 0 2

Total # of neighbors = 1404
Ave neighs/atom = 26
Neighbor list builds = 0
Dangerous builds = 0
unfix            1

print            "@@@@ (lattice parameter, rho, energy per atom):  $x $r $P"
@@@@ (lattice parameter, rho, energy per atom):  3.279 0.0567290806760188 -4.01609708718506

clear
next             x
jump             in.bcc
# bulk Silicon lattice
units            metal
boundary         p p p

atom_style       atomic

variable         x index 3.276 3.277 3.278 3.279 3.280 3.281 3.282 3.283 3.284

#lattice          diamond $x
#lattice         diamond 5.431
#lattice          fcc 3.615
lattice          bcc 3.28
Lattice spacing in x,y,z = 3.28 3.28 3.28
#lattice         sc 2.60

region           box block 0 3 0 3 0 3
create_box       1 box
Created orthogonal box = (0 0 0) to (9.84 9.84 9.84)
  2 by 1 by 2 MPI processor grid
create_atoms     1 box
Created 54 atoms

pair_style       sw
pair_coeff       * * Si.sw Si
Reading potential file Si.sw with DATE: 2007-06-11
mass             1 28
neighbor         1.0 bin
neighbor         1.0 bin
neigh_modify     every 1 delay 5 check yes

variable         P equal pe/54
variable         r equal 54/($x*3)^3
variable         r equal 54/(3.280*3)^3
timestep         0.005
thermo           10

min_style        sd
minimize         1.0e-12 1.0e-12 1000 1000
WARNING: Resetting reneighboring criteria during minimization (../min.cpp:168)
Neighbor list info ...
  1 neighbor list requests
  update every 1 steps, delay 0 steps, check yes
  max neighbors/atom: 2000, page size: 100000
  master list distance cutoff = 4.77118
  ghost atom cutoff = 4.77118
  binsize = 2.38559 -> bins = 5 5 5
Memory usage per processor = 3.61073 Mbytes
Step Temp E_pair E_mol TotEng Press 
       0            0   -216.86924            0   -216.86924   -215297.63 
       1            0   -216.86924            0   -216.86924   -215297.63 
Loop time of 0.00108933 on 4 procs for 1 steps with 54 atoms

183.6% CPU use with 4 MPI tasks x no OpenMP threads

Minimization stats:
  Stopping criterion = energy tolerance
  Energy initial, next-to-last, final = 
        -216.869242708     -216.869242708     -216.869242708
  Force two-norm initial, final = 7.29848e-14 7.05291e-14
  Force max component initial, final = 1.53523e-14 1.31006e-14
  Final line search alpha, max atom move = 1 1.31006e-14
  Iterations, force evaluations = 1 2

MPI task timing breakdown:
Section |  min time  |  avg time  |  max time  |%varavg| %total
---------------------------------------------------------------
Pair    | 0.00080347 | 0.00090426 | 0.001008   |   0.3 | 83.01
Neigh   | 0          | 0          | 0          |   0.0 |  0.00
Comm    | 2.0027e-05 | 0.00012314 | 0.00022388 |   0.9 | 11.30
Output  | 0          | 0          | 0          |   0.0 |  0.00
Modify  | 0          | 0          | 0          |   0.0 |  0.00
Other   |            | 6.193e-05  |            |       |  5.69

Nlocal:    13.5 ave 15 max 12 min
Histogram: 2 0 0 0 0 0 0 0 0 2
Nghost:    162.5 ave 164 max 161 min
Histogram: 2 0 0 0 0 0 0 0 0 2
Neighs:    0 ave 0 max 0 min
Histogram: 4 0 0 0 0 0 0 0 0 0
FullNghs:  351 ave 390 max 312 min
Histogram: 2 0 0 0 0 0 0 0 0 2

Total # of neighbors = 1404
Ave neighs/atom = 26
Neighbor list builds = 0
Dangerous builds = 0

compute          3 all pe/atom
compute          4 all ke/atom
compute          5 all coord/atom 3.0
dump             1 all cfg 1 bcc.*.cfg mass type xs ys zs id type c_3 c_4 c_5

fix              1 all nvt temp 0.1 0.1 2 drag 0.2
run 1000
Neighbor list info ...
  2 neighbor list requests
  update every 1 steps, delay 5 steps, check yes
  max neighbors/atom: 2000, page size: 100000
  master list distance cutoff = 4.77118
  ghost atom cutoff = 4.77118
  binsize = 2.38559 -> bins = 5 5 5
Memory usage per processor = 4.23688 Mbytes
Step Temp E_pair E_mol TotEng Press 
       1            0   -216.86924            0   -216.86924   -215297.63 
      10 9.9249986e-26   -216.86924            0   -216.86924   -215297.63 
      20 6.8294608e-26   -216.86924            0   -216.86924   -215297.63 
      30 7.6981109e-26   -216.86924            0   -216.86924   -215297.63 
      40 9.5323956e-26   -216.86924            0   -216.86924   -215297.63 
      50 1.3360602e-25   -216.86924            0   -216.86924   -215297.63 
      60 1.4900582e-25   -216.86924            0   -216.86924   -215297.63 
      70 1.6971695e-25   -216.86924            0   -216.86924   -215297.63 
      80 1.7443835e-25   -216.86924            0   -216.86924   -215297.63 
      90 2.1196076e-25   -216.86924            0   -216.86924   -215297.63 
     100 2.4159419e-25   -216.86924            0   -216.86924   -215297.63 
     110 2.3572001e-25   -216.86924            0   -216.86924   -215297.63 
     120 3.1043743e-25   -216.86924            0   -216.86924   -215297.63 
     130 3.6605594e-25   -216.86924            0   -216.86924   -215297.63 
     140 3.7783144e-25   -216.86924            0   -216.86924   -215297.63 
     150 4.1417651e-25   -216.86924            0   -216.86924   -215297.63 
     160 3.7735149e-25   -216.86924            0   -216.86924   -215297.63 
     170 5.1762829e-25   -216.86924            0   -216.86924   -215297.63 
     180 4.7126886e-25   -216.86924            0   -216.86924   -215297.63 
     190 5.511636e-25   -216.86924            0   -216.86924   -215297.63 
     200 5.6113862e-25   -216.86924            0   -216.86924   -215297.63 
     210 6.7129022e-25   -216.86924            0   -216.86924   -215297.63 
     220 6.1757512e-25   -216.86924            0   -216.86924   -215297.63 
     230 7.2505254e-25   -216.86924            0   -216.86924   -215297.63 
     240 7.0885087e-25   -216.86924            0   -216.86924   -215297.63 
     250 7.3951993e-25   -216.86924            0   -216.86924   -215297.63 
     260 7.9820999e-25   -216.86924            0   -216.86924   -215297.63 
     270 7.9382448e-25   -216.86924            0   -216.86924   -215297.63 
     280 9.3033669e-25   -216.86924            0   -216.86924   -215297.63 
     290 9.0232093e-25   -216.86924            0   -216.86924   -215297.63 
     300 9.8226003e-25   -216.86924            0   -216.86924   -215297.63 
     310 1.1601725e-24   -216.86924            0   -216.86924   -215297.63 
     320 1.0782481e-24   -216.86924            0   -216.86924   -215297.63 
     330 1.0484553e-24   -216.86924            0   -216.86924   -215297.63 
     340 1.1918607e-24   -216.86924            0   -216.86924   -215297.63 
     350 1.2926476e-24   -216.86924            0   -216.86924   -215297.63 
     360 1.2574044e-24   -216.86924            0   -216.86924   -215297.63 
     370 1.3252671e-24   -216.86924            0   -216.86924   -215297.63 
     380 1.4459894e-24   -216.86924            0   -216.86924   -215297.63 
     390 1.562848e-24   -216.86924            0   -216.86924   -215297.63 
     400 1.5651728e-24   -216.86924            0   -216.86924   -215297.63 
     410 1.6688066e-24   -216.86924            0   -216.86924   -215297.63 
     420 1.507208e-24   -216.86924            0   -216.86924   -215297.63 
     430 1.9209918e-24   -216.86924            0   -216.86924   -215297.63 
     440 1.6858998e-24   -216.86924            0   -216.86924   -215297.63 
     450 1.7077731e-24   -216.86924            0   -216.86924   -215297.63 
     460 2.0343005e-24   -216.86924            0   -216.86924   -215297.63 
     470 1.944946e-24   -216.86924            0   -216.86924   -215297.63 
     480 1.9756339e-24   -216.86924            0   -216.86924   -215297.63 
     490 2.2460605e-24   -216.86924            0   -216.86924   -215297.63 
     500 2.0856224e-24   -216.86924            0   -216.86924   -215297.63 
     510 1.9610551e-24   -216.86924            0   -216.86924   -215297.63 
     520 2.4225868e-24   -216.86924            0   -216.86924   -215297.63 
     530 2.0465837e-24   -216.86924            0   -216.86924   -215297.63 
     540 2.7031252e-24   -216.86924            0   -216.86924   -215297.63 
     550 2.6171811e-24   -216.86924            0   -216.86924   -215297.63 
     560 2.9665408e-24   -216.86924            0   -216.86924   -215297.63 
     570 3.0739644e-24   -216.86924            0   -216.86924   -215297.63 
     580 2.7159394e-24   -216.86924            0   -216.86924   -215297.63 
     590 3.3750993e-24   -216.86924            0   -216.86924   -215297.63 
     600 2.5875491e-24   -216.86924            0   -216.86924   -215297.63 
     610 3.2700363e-24   -216.86924            0   -216.86924   -215297.63 
     620  3.08843e-24   -216.86924            0   -216.86924   -215297.63 
     630 3.1092532e-24   -216.86924            0   -216.86924   -215297.63 
     640 3.5607722e-24   -216.86924            0   -216.86924   -215297.63 
     650 3.2978084e-24   -216.86924            0   -216.86924   -215297.63 
     660 3.6221108e-24   -216.86924            0   -216.86924   -215297.63 
     670 3.591457e-24   -216.86924            0   -216.86924   -215297.63 
     680 3.3925534e-24   -216.86924            0   -216.86924   -215297.63 
     690 3.6794201e-24   -216.86924            0   -216.86924   -215297.63 
     700 3.7466835e-24   -216.86924            0   -216.86924   -215297.63 
     710 3.7306091e-24   -216.86924            0   -216.86924   -215297.63 
     720 4.1561084e-24   -216.86924            0   -216.86924   -215297.63 
     730 3.7799452e-24   -216.86924            0   -216.86924   -215297.63 
     740 4.2014642e-24   -216.86924            0   -216.86924   -215297.63 
     750 4.3659643e-24   -216.86924            0   -216.86924   -215297.63 
     760 3.9432386e-24   -216.86924            0   -216.86924   -215297.63 
     770 4.2600213e-24   -216.86924            0   -216.86924   -215297.63 
     780 4.7370944e-24   -216.86924            0   -216.86924   -215297.63 
     790 4.4314948e-24   -216.86924            0   -216.86924   -215297.63 
     800 5.4747761e-24   -216.86924            0   -216.86924   -215297.63 
     810 4.3642368e-24   -216.86924            0   -216.86924   -215297.63 
     820 5.577153e-24   -216.86924            0   -216.86924   -215297.63 
     830 5.0143535e-24   -216.86924            0   -216.86924   -215297.63 
     840 4.9628446e-24   -216.86924            0   -216.86924   -215297.63 
     850 5.166633e-24   -216.86924            0   -216.86924   -215297.63 
     860 4.6682821e-24   -216.86924            0   -216.86924   -215297.63 
     870 5.7851439e-24   -216.86924            0   -216.86924   -215297.63 
     880 5.017625e-24   -216.86924            0   -216.86924   -215297.63 
     890 5.5721301e-24   -216.86924            0   -216.86924   -215297.63 
     900 5.7925511e-24   -216.86924            0   -216.86924   -215297.63 
     910 5.7337163e-24   -216.86924            0   -216.86924   -215297.63 
     920 5.3060987e-24   -216.86924            0   -216.86924   -215297.63 
     930 5.8617884e-24   -216.86924            0   -216.86924   -215297.63 
     940 4.9638383e-24   -216.86924            0   -216.86924   -215297.63 
     950 6.4842692e-24   -216.86924            0   -216.86924   -215297.63 
     960 5.3431943e-24   -216.86924            0   -216.86924   -215297.63 
     970 5.9864882e-24   -216.86924            0   -216.86924   -215297.63 
     980 6.9068603e-24   -216.86924            0   -216.86924   -215297.63 
     990 6.2003904e-24   -216.86924            0   -216.86924   -215297.63 
    1000 6.087693e-24   -216.86924            0   -216.86924   -215297.63 
    1001 5.905996e-24   -216.86924            0   -216.86924   -215297.63 
Loop time of 1.28205 on 4 procs for 1000 steps with 54 atoms

Performance: 336.960 ns/day, 0.071 hours/ns, 780.000 timesteps/s
75.5% CPU use with 4 MPI tasks x no OpenMP threads

MPI task timing breakdown:
Section |  min time  |  avg time  |  max time  |%varavg| %total
---------------------------------------------------------------
Pair    | 0.28954    | 0.37081    | 0.49726    |  12.7 | 28.92
Neigh   | 0          | 0          | 0          |   0.0 |  0.00
Comm    | 0.29073    | 0.35635    | 0.40393    |   7.8 | 27.80
Output  | 0.31859    | 0.35217    | 0.43167    |   7.8 | 27.47
Modify  | 0.042201   | 0.075225   | 0.10449    |   9.5 |  5.87
Other   |            | 0.1275     |            |       |  9.94

Nlocal:    13.5 ave 15 max 12 min
Histogram: 2 0 0 0 0 0 0 0 0 2
Nghost:    162.5 ave 164 max 161 min
Histogram: 2 0 0 0 0 0 0 0 0 2
Neighs:    0 ave 0 max 0 min
Histogram: 4 0 0 0 0 0 0 0 0 0
FullNghs:  351 ave 390 max 312 min
Histogram: 2 0 0 0 0 0 0 0 0 2

Total # of neighbors = 1404
Ave neighs/atom = 26
Neighbor list builds = 0
Dangerous builds = 0
unfix            1

print            "@@@@ (lattice parameter, rho, energy per atom):  $x $r $P"
@@@@ (lattice parameter, rho, energy per atom):  3.280 0.0566772101391448 -4.01609708718506

clear
next             x
jump             in.bcc
# bulk Silicon lattice
units            metal
boundary         p p p

atom_style       atomic

variable         x index 3.276 3.277 3.278 3.279 3.280 3.281 3.282 3.283 3.284

#lattice          diamond $x
#lattice         diamond 5.431
#lattice          fcc 3.615
lattice          bcc 3.28
Lattice spacing in x,y,z = 3.28 3.28 3.28
#lattice         sc 2.60

region           box block 0 3 0 3 0 3
create_box       1 box
Created orthogonal box = (0 0 0) to (9.84 9.84 9.84)
  2 by 1 by 2 MPI processor grid
create_atoms     1 box
Created 54 atoms

pair_style       sw
pair_coeff       * * Si.sw Si
Reading potential file Si.sw with DATE: 2007-06-11
mass             1 28
neighbor         1.0 bin
neighbor         1.0 bin
neigh_modify     every 1 delay 5 check yes

variable         P equal pe/54
variable         r equal 54/($x*3)^3
variable         r equal 54/(3.281*3)^3
timestep         0.005
thermo           10

min_style        sd
minimize         1.0e-12 1.0e-12 1000 1000
WARNING: Resetting reneighboring criteria during minimization (../min.cpp:168)
Neighbor list info ...
  1 neighbor list requests
  update every 1 steps, delay 0 steps, check yes
  max neighbors/atom: 2000, page size: 100000
  master list distance cutoff = 4.77118
  ghost atom cutoff = 4.77118
  binsize = 2.38559 -> bins = 5 5 5
Memory usage per processor = 3.61073 Mbytes
Step Temp E_pair E_mol TotEng Press 
       0            0   -216.86924            0   -216.86924   -215297.63 
       1            0   -216.86924            0   -216.86924   -215297.63 
Loop time of 0.00110579 on 4 procs for 1 steps with 54 atoms

90.4% CPU use with 4 MPI tasks x no OpenMP threads

Minimization stats:
  Stopping criterion = energy tolerance
  Energy initial, next-to-last, final = 
        -216.869242708     -216.869242708     -216.869242708
  Force two-norm initial, final = 7.29848e-14 7.05291e-14
  Force max component initial, final = 1.53523e-14 1.31006e-14
  Final line search alpha, max atom move = 1 1.31006e-14
  Iterations, force evaluations = 1 2

MPI task timing breakdown:
Section |  min time  |  avg time  |  max time  |%varavg| %total
---------------------------------------------------------------
Pair    | 0.00080991 | 0.00091839 | 0.0010235  |   0.3 | 83.05
Neigh   | 0          | 0          | 0          |   0.0 |  0.00
Comm    | 1.8597e-05 | 0.00012439 | 0.00023222 |   0.9 | 11.25
Output  | 0          | 0          | 0          |   0.0 |  0.00
Modify  | 0          | 0          | 0          |   0.0 |  0.00
Other   |            | 6.3e-05    |            |       |  5.70

Nlocal:    13.5 ave 15 max 12 min
Histogram: 2 0 0 0 0 0 0 0 0 2
Nghost:    162.5 ave 164 max 161 min
Histogram: 2 0 0 0 0 0 0 0 0 2
Neighs:    0 ave 0 max 0 min
Histogram: 4 0 0 0 0 0 0 0 0 0
FullNghs:  351 ave 390 max 312 min
Histogram: 2 0 0 0 0 0 0 0 0 2

Total # of neighbors = 1404
Ave neighs/atom = 26
Neighbor list builds = 0
Dangerous builds = 0

compute          3 all pe/atom
compute          4 all ke/atom
compute          5 all coord/atom 3.0
dump             1 all cfg 1 bcc.*.cfg mass type xs ys zs id type c_3 c_4 c_5

fix              1 all nvt temp 0.1 0.1 2 drag 0.2
run 1000
Neighbor list info ...
  2 neighbor list requests
  update every 1 steps, delay 5 steps, check yes
  max neighbors/atom: 2000, page size: 100000
  master list distance cutoff = 4.77118
  ghost atom cutoff = 4.77118
  binsize = 2.38559 -> bins = 5 5 5
Memory usage per processor = 4.23688 Mbytes
Step Temp E_pair E_mol TotEng Press 
       1            0   -216.86924            0   -216.86924   -215297.63 
      10 9.9249986e-26   -216.86924            0   -216.86924   -215297.63 
      20 6.8294608e-26   -216.86924            0   -216.86924   -215297.63 
      30 7.6981109e-26   -216.86924            0   -216.86924   -215297.63 
      40 9.5323956e-26   -216.86924            0   -216.86924   -215297.63 
      50 1.3360602e-25   -216.86924            0   -216.86924   -215297.63 
      60 1.4900582e-25   -216.86924            0   -216.86924   -215297.63 
      70 1.6971695e-25   -216.86924            0   -216.86924   -215297.63 
      80 1.7443835e-25   -216.86924            0   -216.86924   -215297.63 
      90 2.1196076e-25   -216.86924            0   -216.86924   -215297.63 
     100 2.4159419e-25   -216.86924            0   -216.86924   -215297.63 
     110 2.3572001e-25   -216.86924            0   -216.86924   -215297.63 
     120 3.1043743e-25   -216.86924            0   -216.86924   -215297.63 
     130 3.6605594e-25   -216.86924            0   -216.86924   -215297.63 
     140 3.7783144e-25   -216.86924            0   -216.86924   -215297.63 
     150 4.1417651e-25   -216.86924            0   -216.86924   -215297.63 
     160 3.7735149e-25   -216.86924            0   -216.86924   -215297.63 
     170 5.1762829e-25   -216.86924            0   -216.86924   -215297.63 
     180 4.7126886e-25   -216.86924            0   -216.86924   -215297.63 
     190 5.511636e-25   -216.86924            0   -216.86924   -215297.63 
     200 5.6113862e-25   -216.86924            0   -216.86924   -215297.63 
     210 6.7129022e-25   -216.86924            0   -216.86924   -215297.63 
     220 6.1757512e-25   -216.86924            0   -216.86924   -215297.63 
     230 7.2505254e-25   -216.86924            0   -216.86924   -215297.63 
     240 7.0885087e-25   -216.86924            0   -216.86924   -215297.63 
     250 7.3951993e-25   -216.86924            0   -216.86924   -215297.63 
     260 7.9820999e-25   -216.86924            0   -216.86924   -215297.63 
     270 7.9382448e-25   -216.86924            0   -216.86924   -215297.63 
     280 9.3033669e-25   -216.86924            0   -216.86924   -215297.63 
     290 9.0232093e-25   -216.86924            0   -216.86924   -215297.63 
     300 9.8226003e-25   -216.86924            0   -216.86924   -215297.63 
     310 1.1601725e-24   -216.86924            0   -216.86924   -215297.63 
     320 1.0782481e-24   -216.86924            0   -216.86924   -215297.63 
     330 1.0484553e-24   -216.86924            0   -216.86924   -215297.63 
     340 1.1918607e-24   -216.86924            0   -216.86924   -215297.63 
     350 1.2926476e-24   -216.86924            0   -216.86924   -215297.63 
     360 1.2574044e-24   -216.86924            0   -216.86924   -215297.63 
     370 1.3252671e-24   -216.86924            0   -216.86924   -215297.63 
     380 1.4459894e-24   -216.86924            0   -216.86924   -215297.63 
     390 1.562848e-24   -216.86924            0   -216.86924   -215297.63 
     400 1.5651728e-24   -216.86924            0   -216.86924   -215297.63 
     410 1.6688066e-24   -216.86924            0   -216.86924   -215297.63 
     420 1.507208e-24   -216.86924            0   -216.86924   -215297.63 
     430 1.9209918e-24   -216.86924            0   -216.86924   -215297.63 
     440 1.6858998e-24   -216.86924            0   -216.86924   -215297.63 
     450 1.7077731e-24   -216.86924            0   -216.86924   -215297.63 
     460 2.0343005e-24   -216.86924            0   -216.86924   -215297.63 
     470 1.944946e-24   -216.86924            0   -216.86924   -215297.63 
     480 1.9756339e-24   -216.86924            0   -216.86924   -215297.63 
     490 2.2460605e-24   -216.86924            0   -216.86924   -215297.63 
     500 2.0856224e-24   -216.86924            0   -216.86924   -215297.63 
     510 1.9610551e-24   -216.86924            0   -216.86924   -215297.63 
     520 2.4225868e-24   -216.86924            0   -216.86924   -215297.63 
     530 2.0465837e-24   -216.86924            0   -216.86924   -215297.63 
     540 2.7031252e-24   -216.86924            0   -216.86924   -215297.63 
     550 2.6171811e-24   -216.86924            0   -216.86924   -215297.63 
     560 2.9665408e-24   -216.86924            0   -216.86924   -215297.63 
     570 3.0739644e-24   -216.86924            0   -216.86924   -215297.63 
     580 2.7159394e-24   -216.86924            0   -216.86924   -215297.63 
     590 3.3750993e-24   -216.86924            0   -216.86924   -215297.63 
     600 2.5875491e-24   -216.86924            0   -216.86924   -215297.63 
     610 3.2700363e-24   -216.86924            0   -216.86924   -215297.63 
     620  3.08843e-24   -216.86924            0   -216.86924   -215297.63 
     630 3.1092532e-24   -216.86924            0   -216.86924   -215297.63 
     640 3.5607722e-24   -216.86924            0   -216.86924   -215297.63 
     650 3.2978084e-24   -216.86924            0   -216.86924   -215297.63 
     660 3.6221108e-24   -216.86924            0   -216.86924   -215297.63 
     670 3.591457e-24   -216.86924            0   -216.86924   -215297.63 
     680 3.3925534e-24   -216.86924            0   -216.86924   -215297.63 
     690 3.6794201e-24   -216.86924            0   -216.86924   -215297.63 
     700 3.7466835e-24   -216.86924            0   -216.86924   -215297.63 
     710 3.7306091e-24   -216.86924            0   -216.86924   -215297.63 
     720 4.1561084e-24   -216.86924            0   -216.86924   -215297.63 
     730 3.7799452e-24   -216.86924            0   -216.86924   -215297.63 
     740 4.2014642e-24   -216.86924            0   -216.86924   -215297.63 
     750 4.3659643e-24   -216.86924            0   -216.86924   -215297.63 
     760 3.9432386e-24   -216.86924            0   -216.86924   -215297.63 
     770 4.2600213e-24   -216.86924            0   -216.86924   -215297.63 
     780 4.7370944e-24   -216.86924            0   -216.86924   -215297.63 
     790 4.4314948e-24   -216.86924            0   -216.86924   -215297.63 
     800 5.4747761e-24   -216.86924            0   -216.86924   -215297.63 
     810 4.3642368e-24   -216.86924            0   -216.86924   -215297.63 
     820 5.577153e-24   -216.86924            0   -216.86924   -215297.63 
     830 5.0143535e-24   -216.86924            0   -216.86924   -215297.63 
     840 4.9628446e-24   -216.86924            0   -216.86924   -215297.63 
     850 5.166633e-24   -216.86924            0   -216.86924   -215297.63 
     860 4.6682821e-24   -216.86924            0   -216.86924   -215297.63 
     870 5.7851439e-24   -216.86924            0   -216.86924   -215297.63 
     880 5.017625e-24   -216.86924            0   -216.86924   -215297.63 
     890 5.5721301e-24   -216.86924            0   -216.86924   -215297.63 
     900 5.7925511e-24   -216.86924            0   -216.86924   -215297.63 
     910 5.7337163e-24   -216.86924            0   -216.86924   -215297.63 
     920 5.3060987e-24   -216.86924            0   -216.86924   -215297.63 
     930 5.8617884e-24   -216.86924            0   -216.86924   -215297.63 
     940 4.9638383e-24   -216.86924            0   -216.86924   -215297.63 
     950 6.4842692e-24   -216.86924            0   -216.86924   -215297.63 
     960 5.3431943e-24   -216.86924            0   -216.86924   -215297.63 
     970 5.9864882e-24   -216.86924            0   -216.86924   -215297.63 
     980 6.9068603e-24   -216.86924            0   -216.86924   -215297.63 
     990 6.2003904e-24   -216.86924            0   -216.86924   -215297.63 
    1000 6.087693e-24   -216.86924            0   -216.86924   -215297.63 
    1001 5.905996e-24   -216.86924            0   -216.86924   -215297.63 
Loop time of 1.25671 on 4 procs for 1000 steps with 54 atoms

Performance: 343.756 ns/day, 0.070 hours/ns, 795.731 timesteps/s
75.0% CPU use with 4 MPI tasks x no OpenMP threads

MPI task timing breakdown:
Section |  min time  |  avg time  |  max time  |%varavg| %total
---------------------------------------------------------------
Pair    | 0.30536    | 0.37174    | 0.45025    |   8.5 | 29.58
Neigh   | 0          | 0          | 0          |   0.0 |  0.00
Comm    | 0.39693    | 0.42091    | 0.4459     |   3.6 | 33.49
Output  | 0.31074    | 0.33127    | 0.36978    |   4.0 | 26.36
Modify  | 0.031714   | 0.042204   | 0.049969   |   3.5 |  3.36
Other   |            | 0.09059    |            |       |  7.21

Nlocal:    13.5 ave 15 max 12 min
Histogram: 2 0 0 0 0 0 0 0 0 2
Nghost:    162.5 ave 164 max 161 min
Histogram: 2 0 0 0 0 0 0 0 0 2
Neighs:    0 ave 0 max 0 min
Histogram: 4 0 0 0 0 0 0 0 0 0
FullNghs:  351 ave 390 max 312 min
Histogram: 2 0 0 0 0 0 0 0 0 2

Total # of neighbors = 1404
Ave neighs/atom = 26
Neighbor list builds = 0
Dangerous builds = 0
unfix            1

print            "@@@@ (lattice parameter, rho, energy per atom):  $x $r $P"
@@@@ (lattice parameter, rho, energy per atom):  3.281 0.0566254028204705 -4.01609708718506

clear
next             x
jump             in.bcc
# bulk Silicon lattice
units            metal
boundary         p p p

atom_style       atomic

variable         x index 3.276 3.277 3.278 3.279 3.280 3.281 3.282 3.283 3.284

#lattice          diamond $x
#lattice         diamond 5.431
#lattice          fcc 3.615
lattice          bcc 3.28
Lattice spacing in x,y,z = 3.28 3.28 3.28
#lattice         sc 2.60

region           box block 0 3 0 3 0 3
create_box       1 box
Created orthogonal box = (0 0 0) to (9.84 9.84 9.84)
  2 by 1 by 2 MPI processor grid
create_atoms     1 box
Created 54 atoms

pair_style       sw
pair_coeff       * * Si.sw Si
Reading potential file Si.sw with DATE: 2007-06-11
mass             1 28
neighbor         1.0 bin
neighbor         1.0 bin
neigh_modify     every 1 delay 5 check yes

variable         P equal pe/54
variable         r equal 54/($x*3)^3
variable         r equal 54/(3.282*3)^3
timestep         0.005
thermo           10

min_style        sd
minimize         1.0e-12 1.0e-12 1000 1000
WARNING: Resetting reneighboring criteria during minimization (../min.cpp:168)
Neighbor list info ...
  1 neighbor list requests
  update every 1 steps, delay 0 steps, check yes
  max neighbors/atom: 2000, page size: 100000
  master list distance cutoff = 4.77118
  ghost atom cutoff = 4.77118
  binsize = 2.38559 -> bins = 5 5 5
Memory usage per processor = 3.61073 Mbytes
Step Temp E_pair E_mol TotEng Press 
       0            0   -216.86924            0   -216.86924   -215297.63 
       1            0   -216.86924            0   -216.86924   -215297.63 
Loop time of 0.00273025 on 4 procs for 1 steps with 54 atoms

0.0% CPU use with 4 MPI tasks x no OpenMP threads

Minimization stats:
  Stopping criterion = energy tolerance
  Energy initial, next-to-last, final = 
        -216.869242708     -216.869242708     -216.869242708
  Force two-norm initial, final = 7.29848e-14 7.05291e-14
  Force max component initial, final = 1.53523e-14 1.31006e-14
  Final line search alpha, max atom move = 1 1.31006e-14
  Iterations, force evaluations = 1 2

MPI task timing breakdown:
Section |  min time  |  avg time  |  max time  |%varavg| %total
---------------------------------------------------------------
Pair    | 0.00091887 | 0.00098312 | 0.0010078  |   0.1 | 36.01
Neigh   | 0          | 0          | 0          |   0.0 |  0.00
Comm    | 0.00027537 | 0.00059599 | 0.00088859 |   1.1 | 21.83
Output  | 0          | 0          | 0          |   0.0 |  0.00
Modify  | 0          | 0          | 0          |   0.0 |  0.00
Other   |            | 0.001151   |            |       | 42.16

Nlocal:    13.5 ave 15 max 12 min
Histogram: 2 0 0 0 0 0 0 0 0 2
Nghost:    162.5 ave 164 max 161 min
Histogram: 2 0 0 0 0 0 0 0 0 2
Neighs:    0 ave 0 max 0 min
Histogram: 4 0 0 0 0 0 0 0 0 0
FullNghs:  351 ave 390 max 312 min
Histogram: 2 0 0 0 0 0 0 0 0 2

Total # of neighbors = 1404
Ave neighs/atom = 26
Neighbor list builds = 0
Dangerous builds = 0

compute          3 all pe/atom
compute          4 all ke/atom
compute          5 all coord/atom 3.0
dump             1 all cfg 1 bcc.*.cfg mass type xs ys zs id type c_3 c_4 c_5

fix              1 all nvt temp 0.1 0.1 2 drag 0.2
run 1000
Neighbor list info ...
  2 neighbor list requests
  update every 1 steps, delay 5 steps, check yes
  max neighbors/atom: 2000, page size: 100000
  master list distance cutoff = 4.77118
  ghost atom cutoff = 4.77118
  binsize = 2.38559 -> bins = 5 5 5
Memory usage per processor = 4.23688 Mbytes
Step Temp E_pair E_mol TotEng Press 
       1            0   -216.86924            0   -216.86924   -215297.63 
      10 9.9249986e-26   -216.86924            0   -216.86924   -215297.63 
      20 6.8294608e-26   -216.86924            0   -216.86924   -215297.63 
      30 7.6981109e-26   -216.86924            0   -216.86924   -215297.63 
      40 9.5323956e-26   -216.86924            0   -216.86924   -215297.63 
      50 1.3360602e-25   -216.86924            0   -216.86924   -215297.63 
      60 1.4900582e-25   -216.86924            0   -216.86924   -215297.63 
      70 1.6971695e-25   -216.86924            0   -216.86924   -215297.63 
      80 1.7443835e-25   -216.86924            0   -216.86924   -215297.63 
      90 2.1196076e-25   -216.86924            0   -216.86924   -215297.63 
     100 2.4159419e-25   -216.86924            0   -216.86924   -215297.63 
     110 2.3572001e-25   -216.86924            0   -216.86924   -215297.63 
     120 3.1043743e-25   -216.86924            0   -216.86924   -215297.63 
     130 3.6605594e-25   -216.86924            0   -216.86924   -215297.63 
     140 3.7783144e-25   -216.86924            0   -216.86924   -215297.63 
     150 4.1417651e-25   -216.86924            0   -216.86924   -215297.63 
[...]
     220 6.1757512e-25   -216.86924            0   -216.86924   -215297.63 
     230 7.2505254e-25   -216.86924            0   -216.86924   -215297.63 
     240 7.0885087e-25   -216.86924            0   -216.86924   -215297.63 
     250 7.3951993e-25   -216.86924            0   -216.86924   -215297.63 
     260 7.9820999e-25   -216.86924            0   -216.86924   -215297.63 
     270 7.9382448e-25   -216.86924            0   -216.86924   -215297.63 
     280 9.3033669e-25   -216.86924            0   -216.86924   -215297.63 
     290 9.0232093e-25   -216.86924            0   -216.86924   -215297.63 
     300 9.8226003e-25   -216.86924            0   -216.86924   -215297.63 
     310 1.1601725e-24   -216.86924            0   -216.86924   -215297.63 
     320 1.0782481e-24   -216.86924            0   -216.86924   -215297.63 
     330 1.0484553e-24   -216.86924            0   -216.86924   -215297.63 
     340 1.1918607e-24   -216.86924            0   -216.86924   -215297.63 
     350 1.2926476e-24   -216.86924            0   -216.86924   -215297.63 
     360 1.2574044e-24   -216.86924            0   -216.86924   -215297.63 
     370 1.3252671e-24   -216.86924            0   -216.86924   -215297.63 
     380 1.4459894e-24   -216.86924            0   -216.86924   -215297.63 
     390 1.562848e-24   -216.86924            0   -216.86924   -215297.63 
     400 1.5651728e-24   -216.86924            0   -216.86924   -215297.63 
     410 1.6688066e-24   -216.86924            0   -216.86924   -215297.63 
     420 1.507208e-24   -216.86924            0   -216.86924   -215297.63 
     430 1.9209918e-24   -216.86924            0   -216.86924   -215297.63 
     440 1.6858998e-24   -216.86924            0   -216.86924   -215297.63 
     450 1.7077731e-24   -216.86924            0   -216.86924   -215297.63 
     460 2.0343005e-24   -216.86924            0   -216.86924   -215297.63 
     470 1.944946e-24   -216.86924            0   -216.86924   -215297.63 
     480 1.9756339e-24   -216.86924            0   -216.86924   -215297.63 
     490 2.2460605e-24   -216.86924            0   -216.86924   -215297.63 
     500 2.0856224e-24   -216.86924            0   -216.86924   -215297.63 
     510 1.9610551e-24   -216.86924            0   -216.86924   -215297.63 
     520 2.4225868e-24   -216.86924            0   -216.86924   -215297.63 
     530 2.0465837e-24   -216.86924            0   -216.86924   -215297.63 
     540 2.7031252e-24   -216.86924            0   -216.86924   -215297.63 
     550 2.6171811e-24   -216.86924            0   -216.86924   -215297.63 
     560 2.9665408e-24   -216.86924            0   -216.86924   -215297.63 
     570 3.0739644e-24   -216.86924            0   -216.86924   -215297.63 
     580 2.7159394e-24   -216.86924            0   -216.86924   -215297.63 
     590 3.3750993e-24   -216.86924            0   -216.86924   -215297.63 
     600 2.5875491e-24   -216.86924            0   -216.86924   -215297.63 
     610 3.2700363e-24   -216.86924            0   -216.86924   -215297.63 
     620  3.08843e-24   -216.86924            0   -216.86924   -215297.63 
     630 3.1092532e-24   -216.86924            0   -216.86924   -215297.63 
     640 3.5607722e-24   -216.86924            0   -216.86924   -215297.63 
     650 3.2978084e-24   -216.86924            0   -216.86924   -215297.63 
     660 3.6221108e-24   -216.86924            0   -216.86924   -215297.63 
     670 3.591457e-24   -216.86924            0   -216.86924   -215297.63 
     680 3.3925534e-24   -216.86924            0   -216.86924   -215297.63 
     690 3.6794201e-24   -216.86924            0   -216.86924   -215297.63 
     700 3.7466835e-24   -216.86924            0   -216.86924   -215297.63 
     710 3.7306091e-24   -216.86924            0   -216.86924   -215297.63 
     720 4.1561084e-24   -216.86924            0   -216.86924   -215297.63 
     730 3.7799452e-24   -216.86924            0   -216.86924   -215297.63 
     740 4.2014642e-24   -216.86924            0   -216.86924   -215297.63 
     750 4.3659643e-24   -216.86924            0   -216.86924   -215297.63 
     760 3.9432386e-24   -216.86924            0   -216.86924   -215297.63 
     770 4.2600213e-24   -216.86924            0   -216.86924   -215297.63 
     780 4.7370944e-24   -216.86924            0   -216.86924   -215297.63 
     790 4.4314948e-24   -216.86924            0   -216.86924   -215297.63 
     800 5.4747761e-24   -216.86924            0   -216.86924   -215297.63 
     810 4.3642368e-24   -216.86924            0   -216.86924   -215297.63 
     820 5.577153e-24   -216.86924            0   -216.86924   -215297.63 
     830 5.0143535e-24   -216.86924            0   -216.86924   -215297.63 
     840 4.9628446e-24   -216.86924            0   -216.86924   -215297.63 
     850 5.166633e-24   -216.86924            0   -216.86924   -215297.63 
     860 4.6682821e-24   -216.86924            0   -216.86924   -215297.63 
     870 5.7851439e-24   -216.86924            0   -216.86924   -215297.63 
     880 5.017625e-24   -216.86924            0   -216.86924   -215297.63 
     890 5.5721301e-24   -216.86924            0   -216.86924   -215297.63 
     900 5.7925511e-24   -216.86924            0   -216.86924   -215297.63 
     910 5.7337163e-24   -216.86924            0   -216.86924   -215297.63 
     920 5.3060987e-24   -216.86924            0   -216.86924   -215297.63 
     930 5.8617884e-24   -216.86924            0   -216.86924   -215297.63 
     940 4.9638383e-24   -216.86924            0   -216.86924   -215297.63 
     950 6.4842692e-24   -216.86924            0   -216.86924   -215297.63 
     960 5.3431943e-24   -216.86924            0   -216.86924   -215297.63 
     970 5.9864882e-24   -216.86924            0   -216.86924   -215297.63 
     980 6.9068603e-24   -216.86924            0   -216.86924   -215297.63 
     990 6.2003904e-24   -216.86924            0   -216.86924   -215297.63 
    1000 6.087693e-24   -216.86924            0   -216.86924   -215297.63 
    1001 5.905996e-24   -216.86924            0   -216.86924   -215297.63 
Loop time of 1.32739 on 4 procs for 1000 steps with 54 atoms

Performance: 325.450 ns/day, 0.074 hours/ns, 753.357 timesteps/s
76.0% CPU use with 4 MPI tasks x no OpenMP threads

MPI task timing breakdown:
Section |  min time  |  avg time  |  max time  |%varavg| %total
---------------------------------------------------------------
Pair    | 0.33264    | 0.3747     | 0.44665    |   7.1 | 28.23
Neigh   | 0          | 0          | 0          |   0.0 |  0.00
Comm    | 0.38645    | 0.41771    | 0.43418    |   2.9 | 31.47
Output  | 0.34649    | 0.37492    | 0.42444    |   4.8 | 28.24
Modify  | 0.043466   | 0.054312   | 0.06586    |   3.4 |  4.09
Other   |            | 0.1057     |            |       |  7.97

Nlocal:    13.5 ave 15 max 12 min
Histogram: 2 0 0 0 0 0 0 0 0 2
Nghost:    162.5 ave 164 max 161 min
Histogram: 2 0 0 0 0 0 0 0 0 2
Neighs:    0 ave 0 max 0 min
Histogram: 4 0 0 0 0 0 0 0 0 0
FullNghs:  351 ave 390 max 312 min
Histogram: 2 0 0 0 0 0 0 0 0 2

Total # of neighbors = 1404
Ave neighs/atom = 26
Neighbor list builds = 0
Dangerous builds = 0
unfix            1

print            "@@@@ (lattice parameter, rho, energy per atom):  $x $r $P"
@@@@ (lattice parameter, rho, energy per atom):  3.283 0.0565219774527724 -4.01609708718506

clear
next             x
jump             in.bcc
# bulk Silicon lattice
units            metal
boundary         p p p

atom_style       atomic

variable         x index 3.276 3.277 3.278 3.279 3.280 3.281 3.282 3.283 3.284

#lattice          diamond $x
#lattice         diamond 5.431
#lattice          fcc 3.615
lattice          bcc 3.28
Lattice spacing in x,y,z = 3.28 3.28 3.28
#lattice         sc 2.60

region           box block 0 3 0 3 0 3
create_box       1 box
Created orthogonal box = (0 0 0) to (9.84 9.84 9.84)
  2 by 1 by 2 MPI processor grid
create_atoms     1 box
Created 54 atoms

pair_style       sw
pair_coeff       * * Si.sw Si
Reading potential file Si.sw with DATE: 2007-06-11
mass             1 28
neighbor         1.0 bin
neighbor         1.0 bin
neigh_modify     every 1 delay 5 check yes

variable         P equal pe/54
variable         r equal 54/($x*3)^3
variable         r equal 54/(3.284*3)^3
timestep         0.005
thermo           10

min_style        sd
minimize         1.0e-12 1.0e-12 1000 1000
WARNING: Resetting reneighboring criteria during minimization (../min.cpp:168)
Neighbor list info ...
  1 neighbor list requests
  update every 1 steps, delay 0 steps, check yes
  max neighbors/atom: 2000, page size: 100000
  master list distance cutoff = 4.77118
  ghost atom cutoff = 4.77118
  binsize = 2.38559 -> bins = 5 5 5
Memory usage per processor = 3.61073 Mbytes
Step Temp E_pair E_mol TotEng Press 
       0            0   -216.86924            0   -216.86924   -215297.63 
       1            0   -216.86924            0   -216.86924   -215297.63 
Loop time of 0.00108212 on 4 procs for 1 steps with 54 atoms

277.2% CPU use with 4 MPI tasks x no OpenMP threads

Minimization stats:
  Stopping criterion = energy tolerance
  Energy initial, next-to-last, final = 
        -216.869242708     -216.869242708     -216.869242708
  Force two-norm initial, final = 7.29848e-14 7.05291e-14
  Force max component initial, final = 1.53523e-14 1.31006e-14
  Final line search alpha, max atom move = 1 1.31006e-14
  Iterations, force evaluations = 1 2

MPI task timing breakdown:
Section |  min time  |  avg time  |  max time  |%varavg| %total
---------------------------------------------------------------
Pair    | 0.00080323 | 0.0009076  | 0.0010018  |   0.3 | 83.87
Neigh   | 0          | 0          | 0          |   0.0 |  0.00
Comm    | 1.7405e-05 | 0.00011235 | 0.0002172  |   0.9 | 10.38
Output  | 0          | 0          | 0          |   0.0 |  0.00
Modify  | 0          | 0          | 0          |   0.0 |  0.00
Other   |            | 6.217e-05  |            |       |  5.74

Nlocal:    13.5 ave 15 max 12 min
Histogram: 2 0 0 0 0 0 0 0 0 2
Nghost:    162.5 ave 164 max 161 min
Histogram: 2 0 0 0 0 0 0 0 0 2
Neighs:    0 ave 0 max 0 min
Histogram: 4 0 0 0 0 0 0 0 0 0
FullNghs:  351 ave 390 max 312 min
Histogram: 2 0 0 0 0 0 0 0 0 2

Total # of neighbors = 1404
Ave neighs/atom = 26
Neighbor list builds = 0
Dangerous builds = 0

compute          3 all pe/atom
compute          4 all ke/atom
compute          5 all coord/atom 3.0
dump             1 all cfg 1 bcc.*.cfg mass type xs ys zs id type c_3 c_4 c_5

fix              1 all nvt temp 0.1 0.1 2 drag 0.2
run 1000
Neighbor list info ...
  2 neighbor list requests
  update every 1 steps, delay 5 steps, check yes
  max neighbors/atom: 2000, page size: 100000
  master list distance cutoff = 4.77118
  ghost atom cutoff = 4.77118
  binsize = 2.38559 -> bins = 5 5 5
Memory usage per processor = 4.23688 Mbytes
Step Temp E_pair E_mol TotEng Press 
       1            0   -216.86924            0   -216.86924   -215297.63 
      10 9.9249986e-26   -216.86924            0   -216.86924   -215297.63 
      20 6.8294608e-26   -216.86924            0   -216.86924   -215297.63 
      30 7.6981109e-26   -216.86924            0   -216.86924   -215297.63 
      40 9.5323956e-26   -216.86924            0   -216.86924   -215297.63 
      50 1.3360602e-25   -216.86924            0   -216.86924   -215297.63 
      60 1.4900582e-25   -216.86924            0   -216.86924   -215297.63 
      70 1.6971695e-25   -216.86924            0   -216.86924   -215297.63 
      80 1.7443835e-25   -216.86924            0   -216.86924   -215297.63 
      90 2.1196076e-25   -216.86924            0   -216.86924   -215297.63 
     100 2.4159419e-25   -216.86924            0   -216.86924   -215297.63 
     110 2.3572001e-25   -216.86924            0   -216.86924   -215297.63 
     120 3.1043743e-25   -216.86924            0   -216.86924   -215297.63 
     130 3.6605594e-25   -216.86924            0   -216.86924   -215297.63 
     140 3.7783144e-25   -216.86924            0   -216.86924   -215297.63 
     150 4.1417651e-25   -216.86924            0   -216.86924   -215297.63 
     160 3.7735149e-25   -216.86924            0   -216.86924   -215297.63 
     170 5.1762829e-25   -216.86924            0   -216.86924   -215297.63 
     180 4.7126886e-25   -216.86924            0   -216.86924   -215297.63 
     190 5.511636e-25   -216.86924            0   -216.86924   -215297.63 
     200 5.6113862e-25   -216.86924            0   -216.86924   -215297.63 
     210 6.7129022e-25   -216.86924            0   -216.86924   -215297.63 
     220 6.1757512e-25   -216.86924            0   -216.86924   -215297.63 
     230 7.2505254e-25   -216.86924            0   -216.86924   -215297.63 
     240 7.0885087e-25   -216.86924            0   -216.86924   -215297.63 
     250 7.3951993e-25   -216.86924            0   -216.86924   -215297.63 
     260 7.9820999e-25   -216.86924            0   -216.86924   -215297.63 
     270 7.9382448e-25   -216.86924            0   -216.86924   -215297.63 
     280 9.3033669e-25   -216.86924            0   -216.86924   -215297.63 
     290 9.0232093e-25   -216.86924            0   -216.86924   -215297.63 
     300 9.8226003e-25   -216.86924            0   -216.86924   -215297.63 
     310 1.1601725e-24   -216.86924            0   -216.86924   -215297.63 
     320 1.0782481e-24   -216.86924            0   -216.86924   -215297.63 
     330 1.0484553e-24   -216.86924            0   -216.86924   -215297.63 
     340 1.1918607e-24   -216.86924            0   -216.86924   -215297.63 
     350 1.2926476e-24   -216.86924            0   -216.86924   -215297.63 
     360 1.2574044e-24   -216.86924            0   -216.86924   -215297.63 
     370 1.3252671e-24   -216.86924            0   -216.86924   -215297.63 
     380 1.4459894e-24   -216.86924            0   -216.86924   -215297.63 
     390 1.562848e-24   -216.86924            0   -216.86924   -215297.63 
     400 1.5651728e-24   -216.86924            0   -216.86924   -215297.63 
     410 1.6688066e-24   -216.86924            0   -216.86924   -215297.63 
     420 1.507208e-24   -216.86924            0   -216.86924   -215297.63 
     430 1.9209918e-24   -216.86924            0   -216.86924   -215297.63 
     440 1.6858998e-24   -216.86924            0   -216.86924   -215297.63 
     450 1.7077731e-24   -216.86924            0   -216.86924   -215297.63 
     460 2.0343005e-24   -216.86924            0   -216.86924   -215297.63 
     470 1.944946e-24   -216.86924            0   -216.86924   -215297.63 
     480 1.9756339e-24   -216.86924            0   -216.86924   -215297.63 
     490 2.2460605e-24   -216.86924            0   -216.86924   -215297.63 
     500 2.0856224e-24   -216.86924            0   -216.86924   -215297.63 
     510 1.9610551e-24   -216.86924            0   -216.86924   -215297.63 
     520 2.4225868e-24   -216.86924            0   -216.86924   -215297.63 
     530 2.0465837e-24   -216.86924            0   -216.86924   -215297.63 
     540 2.7031252e-24   -216.86924            0   -216.86924   -215297.63 
     550 2.6171811e-24   -216.86924            0   -216.86924   -215297.63 
     560 2.9665408e-24   -216.86924            0   -216.86924   -215297.63 
     570 3.0739644e-24   -216.86924            0   -216.86924   -215297.63 
     580 2.7159394e-24   -216.86924            0   -216.86924   -215297.63 
     590 3.3750993e-24   -216.86924            0   -216.86924   -215297.63 
     600 2.5875491e-24   -216.86924            0   -216.86924   -215297.63 
     610 3.2700363e-24   -216.86924            0   -216.86924   -215297.63 
     620  3.08843e-24   -216.86924            0   -216.86924   -215297.63 
     630 3.1092532e-24   -216.86924            0   -216.86924   -215297.63 
     640 3.5607722e-24   -216.86924            0   -216.86924   -215297.63 
     650 3.2978084e-24   -216.86924            0   -216.86924   -215297.63 
     660 3.6221108e-24   -216.86924            0   -216.86924   -215297.63 
     670 3.591457e-24   -216.86924            0   -216.86924   -215297.63 
     680 3.3925534e-24   -216.86924            0   -216.86924   -215297.63 
     690 3.6794201e-24   -216.86924            0   -216.86924   -215297.63 
     700 3.7466835e-24   -216.86924            0   -216.86924   -215297.63 
     710 3.7306091e-24   -216.86924            0   -216.86924   -215297.63 
     720 4.1561084e-24   -216.86924            0   -216.86924   -215297.63 
     730 3.7799452e-24   -216.86924            0   -216.86924   -215297.63 
     740 4.2014642e-24   -216.86924            0   -216.86924   -215297.63 
     750 4.3659643e-24   -216.86924            0   -216.86924   -215297.63 
     760 3.9432386e-24   -216.86924            0   -216.86924   -215297.63 
     770 4.2600213e-24   -216.86924            0   -216.86924   -215297.63 
     780 4.7370944e-24   -216.86924            0   -216.86924   -215297.63 
     790 4.4314948e-24   -216.86924            0   -216.86924   -215297.63 
     800 5.4747761e-24   -216.86924            0   -216.86924   -215297.63 
     810 4.3642368e-24   -216.86924            0   -216.86924   -215297.63 
     820 5.577153e-24   -216.86924            0   -216.86924   -215297.63 
     830 5.0143535e-24   -216.86924            0   -216.86924   -215297.63 
     840 4.9628446e-24   -216.86924            0   -216.86924   -215297.63 
     850 5.166633e-24   -216.86924            0   -216.86924   -215297.63 
     860 4.6682821e-24   -216.86924            0   -216.86924   -215297.63 
     870 5.7851439e-24   -216.86924            0   -216.86924   -215297.63 
     880 5.017625e-24   -216.86924            0   -216.86924   -215297.63 
     890 5.5721301e-24   -216.86924            0   -216.86924   -215297.63 
     900 5.7925511e-24   -216.86924            0   -216.86924   -215297.63 
     910 5.7337163e-24   -216.86924            0   -216.86924   -215297.63 
     920 5.3060987e-24   -216.86924            0   -216.86924   -215297.63 
     930 5.8617884e-24   -216.86924            0   -216.86924   -215297.63 
     940 4.9638383e-24   -216.86924            0   -216.86924   -215297.63 
     950 6.4842692e-24   -216.86924            0   -216.86924   -215297.63 
     960 5.3431943e-24   -216.86924            0   -216.86924   -215297.63 
     970 5.9864882e-24   -216.86924            0   -216.86924   -215297.63 
     980 6.9068603e-24   -216.86924            0   -216.86924   -215297.63 
     990 6.2003904e-24   -216.86924            0   -216.86924   -215297.63 
    1000 6.087693e-24   -216.86924            0   -216.86924   -215297.63 
    1001 5.905996e-24   -216.86924            0   -216.86924   -215297.63 
Loop time of 1.34606 on 4 procs for 1000 steps with 54 atoms

Performance: 320.936 ns/day, 0.075 hours/ns, 742.908 timesteps/s
75.3% CPU use with 4 MPI tasks x no OpenMP threads

MPI task timing breakdown:
Section |  min time  |  avg time  |  max time  |%varavg| %total
---------------------------------------------------------------
Pair    | 0.32993    | 0.37381    | 0.45681    |   8.1 | 27.77
Neigh   | 0          | 0          | 0          |   0.0 |  0.00
Comm    | 0.44135    | 0.46756    | 0.48677    |   2.7 | 34.74
Output  | 0.30907    | 0.34374    | 0.40265    |   6.1 | 25.54
Modify  | 0.024036   | 0.040822   | 0.052595   |   6.0 |  3.03
Other   |            | 0.1201     |            |       |  8.92

Nlocal:    13.5 ave 15 max 12 min
Histogram: 2 0 0 0 0 0 0 0 0 2
Nghost:    162.5 ave 164 max 161 min
Histogram: 2 0 0 0 0 0 0 0 0 2
Neighs:    0 ave 0 max 0 min
Histogram: 4 0 0 0 0 0 0 0 0 0
FullNghs:  351 ave 390 max 312 min
Histogram: 2 0 0 0 0 0 0 0 0 2

Total # of neighbors = 1404
Ave neighs/atom = 26
Neighbor list builds = 0
Dangerous builds = 0
unfix            1

print            "@@@@ (lattice parameter, rho, energy per atom):  $x $r $P"
@@@@ (lattice parameter, rho, energy per atom):  3.284 0.0564703592117136 -4.01609708718506

clear
next             x
jump             in.bcc

Total wall time: 0:00:11
