ITEM: TIMESTEP
1
ITEM: NUMBER OF ATOMS
54
ITEM: BOX BOUNDS pp pp pp
0.0000000000000000e+00 9.8399999999999999e+00
0.0000000000000000e+00 9.8399999999999999e+00
0.0000000000000000e+00 9.8399999999999999e+00
ITEM: ATOMS id type xs ys zs c_3 c_4 c_5 
1 1 0 0 0 -4.0161 0 8 
2 1 0.166667 0.166667 0.166667 -4.0161 0 8 
3 1 0.333333 0 0 -4.0161 0 8 
4 1 0 0.333333 0 -4.0161 0 8 
6 1 0.333333 0.333333 0 -4.0161 0 8 
5 1 0.166667 0.5 0.166667 -4.0161 0 8 
7 1 1.16319e-17 0.666667 0 -4.0161 0 8 
9 1 0.333333 0.666667 0 -4.0161 0 8 
8 1 0.166667 0.833333 0.166667 -4.0161 0 8 
10 1 0 0 0.333333 -4.0161 0 8 
11 1 0.333333 0 0.333333 -4.0161 0 8 
12 1 0 0.333333 0.333333 -4.0161 0 8 
13 1 0.333333 0.333333 0.333333 -4.0161 0 8 
14 1 0 0.666667 0.333333 -4.0161 0 8 
15 1 0.333333 0.666667 0.333333 -4.0161 0 8 
16 1 0.166667 0.166667 0.5 -4.0161 0 8 
19 1 0 0 0.666667 -4.0161 0 8 
21 1 0.333333 0 0.666667 -4.0161 0 8 
22 1 0 0.333333 0.666667 -4.0161 0 8 
24 1 0.333333 0.333333 0.666667 -4.0161 0 8 
17 1 0.166667 0.5 0.5 -4.0161 0 8 
25 1 0 0.666667 0.666667 -4.0161 0 8 
27 1 0.333333 0.666667 0.666667 -4.0161 0 8 
18 1 0.166667 0.833333 0.5 -4.0161 0 8 
20 1 0.166667 0.166667 0.833333 -4.0161 0 8 
23 1 0.166667 0.5 0.833333 -4.0161 0 8 
26 1 0.166667 0.833333 0.833333 -4.0161 0 8 
28 1 0.5 0.166667 0.166667 -4.0161 0 8 
29 1 0.666667 9.99373e-18 0 -4.0161 0 8 
30 1 0.833333 0.166667 0.166667 -4.0161 0 8 
32 1 0.666667 0.333333 0 -4.0161 0 8 
31 1 0.5 0.5 0.166667 -4.0161 0 8 
35 1 0.666667 0.666667 0 -4.0161 0 8 
33 1 0.833333 0.5 0.166667 -4.0161 0 8 
34 1 0.5 0.833333 0.166667 -4.0161 0 8 
36 1 0.833333 0.833333 0.166667 -4.0161 0 8 
37 1 0.666667 0 0.333333 -4.0161 0 8 
38 1 0.666667 0.333333 0.333333 -4.0161 0 8 
39 1 0.666667 0.666667 0.333333 -4.0161 0 8 
40 1 0.5 0.166667 0.5 -4.0161 0 8 
47 1 0.666667 0 0.666667 -4.0161 0 8 
41 1 0.833333 0.166667 0.5 -4.0161 0 8 
50 1 0.666667 0.333333 0.666667 -4.0161 0 8 
42 1 0.5 0.5 0.5 -4.0161 0 8 
53 1 0.666667 0.666667 0.666667 -4.0161 0 8 
43 1 0.833333 0.5 0.5 -4.0161 0 8 
44 1 0.5 0.833333 0.5 -4.0161 0 8 
45 1 0.833333 0.833333 0.5 -4.0161 0 8 
46 1 0.5 0.166667 0.833333 -4.0161 0 8 
48 1 0.833333 0.166667 0.833333 -4.0161 0 8 
49 1 0.5 0.5 0.833333 -4.0161 0 8 
51 1 0.833333 0.5 0.833333 -4.0161 0 8 
52 1 0.5 0.833333 0.833333 -4.0161 0 8 
54 1 0.833333 0.833333 0.833333 -4.0161 0 8 
ITEM: TIMESTEP
2
ITEM: NUMBER OF ATOMS
54
ITEM: BOX BOUNDS pp pp pp
0.0000000000000000e+00 9.8399999999999999e+00
0.0000000000000000e+00 9.8399999999999999e+00
0.0000000000000000e+00 9.8399999999999999e+00
ITEM: ATOMS id type xs ys zs c_3 c_4 c_5 
1 1 -1.16638e-18 -1.16638e-18 -8.86934e-19 -4.0161 8.16601e-32 8 
2 1 0.166667 0.166667 0.166667 -4.0161 2.06397e-31 8 
3 1 0.333333 -2.91595e-18 -2.02901e-18 -4.0161 2.84528e-31 8 
4 1 -2.69725e-18 0.333333 -2.29631e-18 -4.0161 3.38961e-31 8 
6 1 0.333333 0.333333 -1.51872e-18 -4.0161 9.60217e-32 8 
5 1 0.166667 0.5 0.166667 -4.0161 2.10703e-31 8 
7 1 1.09394e-17 0.666667 -3.29563e-19 -4.0161 1.21525e-31 8 
9 1 0.333333 0.666667 -2.20974e-18 -4.0161 3.317e-31 8 
8 1 0.166667 0.833333 0.166667 -4.0161 6.85037e-31 8 
10 1 -1.16638e-18 -1.31218e-18 0.333333 -4.0161 7.01356e-32 8 
11 1 0.333333 -1.60377e-18 0.333333 -4.0161 8.88774e-32 8 
12 1 -1.55517e-18 0.333333 0.333333 -4.0161 5.86145e-32 8 
13 1 0.333333 0.333333 0.333333 -4.0161 6.11629e-32 8 
14 1 -1.36078e-18 0.666667 0.333333 -4.0161 1.06398e-31 8 
15 1 0.333333 0.666667 0.333333 -4.0161 5.45794e-32 8 
16 1 0.166667 0.166667 0.5 -4.0161 2.29995e-31 8 
19 1 -1.57947e-18 -1.02058e-18 0.666667 -4.0161 2.45992e-31 8 
21 1 0.333333 -2.50285e-18 0.666667 -4.0161 2.61495e-31 8 
22 1 -2.04116e-18 0.333333 0.666667 -4.0161 1.38678e-31 8 
24 1 0.333333 0.333333 0.666667 -4.0161 2.44227e-32 8 
17 1 0.166667 0.5 0.5 -4.0161 5.22897e-31 8 
25 1 -1.65237e-18 0.666667 0.666667 -4.0161 9.64697e-32 8 
27 1 0.333333 0.666667 0.666667 -4.0161 2.81392e-31 8 
18 1 0.166667 0.833333 0.5 -4.0161 7.69857e-31 8 
20 1 0.166667 0.166667 0.833333 -4.0161 6.56373e-31 8 
23 1 0.166667 0.5 0.833333 -4.0161 8.63089e-31 8 
26 1 0.166667 0.833333 0.833333 -4.0161 1.08602e-30 8 
28 1 0.5 0.166667 0.166667 -4.0161 3.07514e-31 8 
29 1 0.666667 9.18518e-18 -2.99805e-19 -4.0161 5.2695e-32 8 
30 1 0.833333 0.166667 0.166667 -4.0161 5.54926e-31 8 
32 1 0.666667 0.333333 -2.0928e-18 -4.0161 2.83619e-31 8 
31 1 0.5 0.5 0.166667 -4.0161 2.9647e-31 8 
35 1 0.666667 0.666667 -1.09006e-18 -4.0161 1.24103e-31 8 
33 1 0.833333 0.5 0.166667 -4.0161 5.54077e-31 8 
34 1 0.5 0.833333 0.166667 -4.0161 6.40419e-31 8 
36 1 0.833333 0.833333 0.166667 -4.0161 6.99551e-31 8 
37 1 0.666667 -1.75161e-18 0.333333 -4.0161 1.26981e-31 8 
38 1 0.666667 0.333333 0.333333 -4.0161 1.19837e-32 8 
39 1 0.666667 0.666667 0.333333 -4.0161 1.28546e-31 8 
40 1 0.5 0.166667 0.5 -4.0161 5.43883e-31 8 
47 1 0.666667 -1.57074e-18 0.666667 -4.0161 1.15362e-31 8 
41 1 0.833333 0.166667 0.5 -4.0161 5.51528e-31 8 
50 1 0.666667 0.333333 0.666667 -4.0161 1.84294e-31 8 
42 1 0.5 0.5 0.5 -4.0161 6.3584e-31 8 
53 1 0.666667 0.666667 0.666667 -4.0161 1.70694e-31 8 
43 1 0.833333 0.5 0.5 -4.0161 9.09563e-31 8 
44 1 0.5 0.833333 0.5 -4.0161 7.40114e-31 8 
45 1 0.833333 0.833333 0.5 -4.0161 7.17178e-31 8 
46 1 0.5 0.166667 0.833333 -4.0161 7.60602e-31 8 
48 1 0.833333 0.166667 0.833333 -4.0161 1.1344e-30 8 
49 1 0.5 0.5 0.833333 -4.0161 7.81526e-31 8 
51 1 0.833333 0.5 0.833333 -4.0161 1.63207e-30 8 
52 1 0.5 0.833333 0.833333 -4.0161 1.22715e-30 8 
54 1 0.833333 0.833333 0.833333 -4.0161 1.35356e-30 8 
ITEM: TIMESTEP
3
ITEM: NUMBER OF ATOMS
54
ITEM: BOX BOUNDS pp pp pp
0.0000000000000000e+00 9.8399999999999999e+00
0.0000000000000000e+00 9.8399999999999999e+00
0.0000000000000000e+00 9.8399999999999999e+00
ITEM: ATOMS id type xs ys zs c_3 c_4 c_5 
1 1 -5.05432e-18 -4.47113e-18 -3.54775e-18 -4.0161 3.1799e-31 8 
2 1 0.166667 0.166667 0.166667 -4.0161 8.64544e-31 8 
3 1 0.333333 -1.16638e-17 -8.11608e-18 -4.0161 8.99965e-31 8 
4 1 -1.0789e-17 0.333333 -9.28246e-18 -4.0161 1.3786e-30 8 
6 1 0.333333 0.333333 -6.07491e-18 -4.0161 3.64659e-31 8 
5 1 0.166667 0.5 0.166667 -4.0161 8.37981e-31 8 
7 1 9.15338e-18 0.666667 -2.68207e-18 -4.0161 4.66616e-31 8 
9 1 0.333333 0.666667 -8.83596e-18 -4.0161 1.29906e-30 8 
8 1 0.166667 0.833333 0.166667 -4.0161 2.71707e-30 8 
10 1 -4.66553e-18 -5.24872e-18 0.333333 -4.0161 2.80546e-31 8 
11 1 0.333333 -6.4151e-18 0.333333 -4.0161 3.47444e-31 8 
12 1 -6.22071e-18 0.333333 0.333333 -4.0161 2.15347e-31 8 
13 1 0.333333 0.333333 0.333333 -4.0161 2.44655e-31 8 
14 1 -5.44312e-18 0.666667 0.333333 -4.0161 4.19651e-31 8 
15 1 0.333333 0.666667 0.333333 -4.0161 2.1832e-31 8 
16 1 0.166667 0.166667 0.5 -4.0161 9.19991e-31 8 
19 1 -6.31791e-18 -4.08234e-18 0.666667 -4.0161 9.83982e-31 8 
21 1 0.333333 -1.00115e-17 0.666667 -4.0161 1.04054e-30 8 
22 1 -8.16468e-18 0.333333 0.666667 -4.0161 5.54721e-31 8 
24 1 0.333333 0.333333 0.666667 -4.0161 9.7692e-32 8 
17 1 0.166667 0.5 0.5 -4.0161 2.09161e-30 8 
25 1 -6.8039e-18 0.666667 0.666667 -4.0161 3.9337e-31 8 
27 1 0.333333 0.666667 0.666667 -4.0161 1.12558e-30 8 
18 1 0.166667 0.833333 0.5 -4.0161 3.07946e-30 8 
20 1 0.166667 0.166667 0.833333 -4.0161 2.70584e-30 8 
23 1 0.166667 0.5 0.833333 -4.0161 3.33904e-30 8 
26 1 0.166667 0.833333 0.833333 -4.0161 4.2936e-30 8 
28 1 0.5 0.166667 0.166667 -4.0161 1.29824e-30 8 
29 1 0.666667 6.75267e-18 -1.20682e-18 -4.0161 2.08849e-31 8 
30 1 0.833333 0.166667 0.166667 -4.0161 2.21973e-30 8 
32 1 0.666667 0.333333 -8.37123e-18 -4.0161 1.13427e-30 8 
31 1 0.5 0.5 0.166667 -4.0161 1.1859e-30 8 
35 1 0.666667 0.666667 -4.36482e-18 -4.0161 4.85836e-31 8 
33 1 0.833333 0.5 0.166667 -4.0161 2.18512e-30 8 
34 1 0.5 0.833333 0.166667 -4.0161 2.60089e-30 8 
36 1 0.833333 0.833333 0.166667 -4.0161 2.8267e-30 8 
37 1 0.666667 -7.0057e-18 0.333333 -4.0161 5.07961e-31 8 
38 1 0.666667 0.333333 0.333333 -4.0161 3.43366e-32 8 
39 1 0.666667 0.666667 0.333333 -4.0161 5.1419e-31 8 
40 1 0.5 0.166667 0.5 -4.0161 2.17556e-30 8 
47 1 0.666667 -6.2807e-18 0.666667 -4.0161 4.61509e-31 8 
41 1 0.833333 0.166667 0.5 -4.0161 2.20614e-30 8 
50 1 0.666667 0.333333 0.666667 -4.0161 7.37184e-31 8 
42 1 0.5 0.5 0.5 -4.0161 2.54339e-30 8 
53 1 0.666667 0.666667 0.666667 -4.0161 6.82784e-31 8 
43 1 0.833333 0.5 0.5 -4.0161 3.6383e-30 8 
44 1 0.5 0.833333 0.5 -4.0161 2.96049e-30 8 
45 1 0.833333 0.833333 0.5 -4.0161 2.86875e-30 8 
46 1 0.5 0.166667 0.833333 -4.0161 3.05727e-30 8 
48 1 0.833333 0.166667 0.833333 -4.0161 4.53766e-30 8 
49 1 0.5 0.5 0.833333 -4.0161 3.12614e-30 8 
51 1 0.833333 0.5 0.833333 -4.0161 6.50719e-30 8 
52 1 0.5 0.833333 0.833333 -4.0161 4.8097e-30 8 
54 1 0.833333 0.833333 0.833333 -4.0161 5.41495e-30 8 
ITEM: TIMESTEP
4
ITEM: NUMBER OF ATOMS
54
ITEM: BOX BOUNDS pp pp pp
0.0000000000000000e+00 9.8399999999999999e+00
0.0000000000000000e+00 9.8399999999999999e+00
0.0000000000000000e+00 9.8399999999999999e+00
ITEM: ATOMS id type xs ys zs c_3 c_4 c_5 
1 1 -1.12751e-17 -9.9143e-18 -7.78807e-18 -4.0161 6.31909e-31 8 
2 1 0.166667 0.166667 0.166667 -4.0161 1.79247e-30 8 
3 1 0.333333 -2.41054e-17 -1.57827e-17 -4.0161 1.6161e-30 8 
4 1 -2.42269e-17 0.333333 -2.13473e-17 -4.0161 2.71813e-30 8 
6 1 0.333333 0.333333 -1.30854e-17 -4.0161 5.7211e-31 8 
5 1 0.166667 0.5 0.166667 -4.0161 1.85227e-30 8 
7 1 6.44394e-18 0.666667 -7.05756e-18 -4.0161 9.63629e-31 8 
9 1 0.333333 0.666667 -1.98757e-17 -4.0161 2.38575e-30 8 
8 1 0.166667 0.833333 0.166667 -4.0161 4.88156e-30 8 
10 1 -1.04975e-17 -1.18097e-17 0.333333 -4.0161 5.80975e-31 8 
11 1 0.333333 -1.40453e-17 0.333333 -4.0161 6.92952e-31 8 
12 1 -1.36079e-17 0.333333 0.333333 -4.0161 3.73203e-31 8 
13 1 0.333333 0.333333 0.333333 -4.0161 5.28451e-31 8 
14 1 -1.22471e-17 0.666667 0.333333 -4.0161 9.88037e-31 8 
15 1 0.333333 0.666667 0.333333 -4.0161 4.62401e-31 8 
16 1 0.166667 0.166667 0.5 -4.0161 1.85064e-30 8 
19 1 -1.42154e-17 -9.18531e-18 0.666667 -4.0161 2.02727e-30 8 
21 1 0.333333 -2.24287e-17 0.666667 -4.0161 2.1111e-30 8 
22 1 -1.83706e-17 0.333333 0.666667 -4.0161 1.04363e-30 8 
24 1 0.333333 0.333333 0.666667 -4.0161 2.6887e-31 8 
17 1 0.166667 0.5 0.5 -4.0161 4.78174e-30 8 
25 1 -1.54546e-17 0.666667 0.666667 -4.0161 8.02048e-31 8 
27 1 0.333333 0.666667 0.666667 -4.0161 2.45955e-30 8 
18 1 0.166667 0.833333 0.5 -4.0161 7.10144e-30 8 
20 1 0.166667 0.166667 0.833333 -4.0161 5.28791e-30 8 
23 1 0.166667 0.5 0.833333 -4.0161 7.56005e-30 8 
26 1 0.166667 0.833333 0.833333 -4.0161 9.70817e-30 8 
28 1 0.5 0.166667 0.166667 -4.0161 2.40758e-30 8 
29 1 0.666667 2.68109e-18 -2.34051e-18 -4.0161 4.56867e-31 8 
30 1 0.833333 0.166667 0.166667 -4.0161 4.7473e-30 8 
32 1 0.666667 0.333333 -1.88308e-17 -4.0161 2.11415e-30 8 
31 1 0.5 0.5 0.166667 -4.0161 2.76389e-30 8 
35 1 0.666667 0.666667 -9.82963e-18 -4.0161 1.09694e-30 8 
33 1 0.833333 0.5 0.166667 -4.0161 4.79016e-30 8 
34 1 0.5 0.833333 0.166667 -4.0161 4.52495e-30 8 
36 1 0.833333 0.833333 0.166667 -4.0161 5.15571e-30 8 
37 1 0.666667 -1.57639e-17 0.333333 -4.0161 1.02809e-30 8 
38 1 0.666667 0.333333 0.333333 -4.0161 2.81347e-32 8 
39 1 0.666667 0.666667 0.333333 -4.0161 1.15569e-30 8 
40 1 0.5 0.166667 0.5 -4.0161 4.91831e-30 8 
47 1 0.666667 -1.41337e-17 0.666667 -4.0161 9.37059e-31 8 
41 1 0.833333 0.166667 0.5 -4.0161 4.42262e-30 8 
50 1 0.666667 0.333333 0.666667 -4.0161 1.60765e-30 8 
42 1 0.5 0.5 0.5 -4.0161 5.70841e-30 8 
53 1 0.666667 0.666667 0.666667 -4.0161 1.54671e-30 8 
43 1 0.833333 0.5 0.5 -4.0161 8.23978e-30 8 
44 1 0.5 0.833333 0.5 -4.0161 6.76941e-30 8 
45 1 0.833333 0.833333 0.5 -4.0161 5.56552e-30 8 
46 1 0.5 0.166667 0.833333 -4.0161 7.20043e-30 8 
48 1 0.833333 0.166667 0.833333 -4.0161 8.78235e-30 8 
49 1 0.5 0.5 0.833333 -4.0161 7.02155e-30 8 
51 1 0.833333 0.5 0.833333 -4.0161 1.45006e-29 8 
52 1 0.5 0.833333 0.833333 -4.0161 1.07485e-29 8 
54 1 0.833333 0.833333 0.833333 -4.0161 1.21401e-29 8 
ITEM: TIMESTEP
5
ITEM: NUMBER OF ATOMS
54
ITEM: BOX BOUNDS pp pp pp
0.0000000000000000e+00 9.8399999999999999e+00
0.0000000000000000e+00 9.8399999999999999e+00
0.0000000000000000e+00 9.8399999999999999e+00
ITEM: ATOMS id type xs ys zs c_3 c_4 c_5 
1 1 -1.82736e-17 -1.71072e-17 -1.42884e-17 -4.0161 8.45788e-31 8 
2 1 0.166667 0.166667 0.166667 -4.0161 2.50013e-30 8 
3 1 0.333333 -3.92687e-17 -2.75075e-17 -4.0161 2.58062e-30 8 
4 1 -3.99005e-17 0.333333 -3.59153e-17 -4.0161 3.78578e-30 8 
6 1 0.333333 0.333333 -1.95858e-17 -4.0161 5.77432e-31 8 
5 1 0.166667 0.5 0.166667 -4.0161 3.4566e-30 8 
7 1 3.10266e-18 0.666667 -1.19981e-17 -4.0161 1.3942e-30 8 
9 1 0.333333 0.666667 -3.24055e-17 -4.0161 3.25801e-30 8 
8 1 0.166667 0.833333 0.166667 -4.0161 5.7866e-30 8 
10 1 -1.94399e-17 -1.8954e-17 0.333333 -4.0161 8.07079e-31 8 
11 1 0.333333 -2.37167e-17 0.333333 -4.0161 1.06428e-30 8 
12 1 -2.21616e-17 0.333333 0.333333 -4.0161 4.61994e-31 8 
13 1 0.333333 0.333333 0.333333 -4.0161 7.54659e-31 8 
14 1 -2.25503e-17 0.666667 0.333333 -4.0161 1.80766e-30 8 
15 1 0.333333 0.666667 0.333333 -4.0161 8.82295e-31 8 
16 1 0.166667 0.166667 0.5 -4.0161 2.91863e-30 8 
19 1 -2.44457e-17 -1.71558e-17 0.666667 -4.0161 2.82554e-30 8 
21 1 0.333333 -3.68873e-17 0.666667 -4.0161 2.94473e-30 8 
22 1 -3.11039e-17 0.333333 0.666667 -4.0161 1.46546e-30 8 
24 1 0.333333 0.333333 0.666667 -4.0161 7.1923e-31 8 
17 1 0.166667 0.5 0.5 -4.0161 7.4829e-30 8 
25 1 -2.64383e-17 0.666667 0.666667 -4.0161 1.25021e-30 8 
27 1 0.333333 0.666667 0.666667 -4.0161 3.849e-30 8 
18 1 0.166667 0.833333 0.5 -4.0161 1.26843e-29 8 
20 1 0.166667 0.166667 0.833333 -4.0161 7.71613e-30 8 
23 1 0.166667 0.5 0.833333 -4.0161 1.25467e-29 8 
26 1 0.166667 0.833333 0.833333 -4.0161 1.72922e-29 8 
28 1 0.5 0.166667 0.166667 -4.0161 3.21154e-30 8 
29 1 0.666667 -2.27191e-18 -4.50284e-18 -4.0161 7.41214e-31 8 
30 1 0.833333 0.166667 0.166667 -4.0161 6.75328e-30 8 
32 1 0.666667 0.333333 -2.91334e-17 -4.0161 2.84962e-30 8 
31 1 0.5 0.5 0.166667 -4.0161 5.21722e-30 8 
35 1 0.666667 0.666667 -1.67844e-17 -4.0161 1.99573e-30 8 
33 1 0.833333 0.5 0.166667 -4.0161 8.49342e-30 8 
34 1 0.5 0.833333 0.166667 -4.0161 5.44786e-30 8 
36 1 0.833333 0.833333 0.166667 -4.0161 6.03165e-30 8 
37 1 0.666667 -2.66723e-17 0.333333 -4.0161 1.41193e-30 8 
38 1 0.666667 0.333333 0.333333 -4.0161 1.11469e-31 8 
39 1 0.666667 0.666667 0.333333 -4.0161 2.1066e-30 8 
40 1 0.5 0.166667 0.5 -4.0161 7.72004e-30 8 
47 1 0.666667 -2.43515e-17 0.666667 -4.0161 1.45457e-30 8 
41 1 0.833333 0.166667 0.5 -4.0161 7.08994e-30 8 
50 1 0.666667 0.333333 0.666667 -4.0161 2.62587e-30 8 
42 1 0.5 0.5 0.5 -4.0161 1.05435e-29 8 
53 1 0.666667 0.666667 0.666667 -4.0161 2.89517e-30 8 
43 1 0.833333 0.5 0.5 -4.0161 1.32754e-29 8 
44 1 0.5 0.833333 0.5 -4.0161 1.0747e-29 8 
45 1 0.833333 0.833333 0.5 -4.0161 8.38638e-30 8 
46 1 0.5 0.166667 0.833333 -4.0161 1.22071e-29 8 
48 1 0.833333 0.166667 0.833333 -4.0161 1.10774e-29 8 
49 1 0.5 0.5 0.833333 -4.0161 1.25686e-29 8 
51 1 0.833333 0.5 0.833333 -4.0161 2.36661e-29 8 
52 1 0.5 0.833333 0.833333 -4.0161 1.72627e-29 8 
54 1 0.833333 0.833333 0.833333 -4.0161 2.15824e-29 8 
ITEM: TIMESTEP
6
ITEM: NUMBER OF ATOMS
54
ITEM: BOX BOUNDS pp pp pp
0.0000000000000000e+00 9.8399999999999999e+00
0.0000000000000000e+00 9.8399999999999999e+00
0.0000000000000000e+00 9.8399999999999999e+00
ITEM: ATOMS id type xs ys zs c_3 c_4 c_5 
1 1 -2.48834e-17 -2.41058e-17 -2.24655e-17 -4.0161 1.1228e-30 8 
2 1 0.166667 0.166667 0.166667 -4.0161 2.19677e-30 8 
3 1 0.333333 -5.55988e-17 -4.44085e-17 -4.0161 3.51221e-30 8 
4 1 -5.61092e-17 0.333333 -5.0508e-17 -4.0161 4.98998e-30 8 
6 1 0.333333 0.333333 -2.56246e-17 -4.0161 6.5514e-31 8 
5 1 0.166667 0.5 0.166667 -4.0161 5.8612e-30 8 
7 1 -9.29073e-20 0.666667 -1.80945e-17 -4.0161 1.87072e-30 8 
9 1 0.333333 0.666667 -4.58499e-17 -4.0161 4.25737e-30 8 
8 1 0.166667 0.833333 0.166667 -4.0161 5.91899e-30 8 
10 1 -2.9549e-17 -2.57096e-17 0.333333 -4.0161 7.44566e-31 8 
11 1 0.333333 -3.43605e-17 0.333333 -4.0161 1.42576e-30 8 
12 1 -3.16875e-17 0.333333 0.333333 -4.0161 5.99431e-31 8 
13 1 0.333333 0.333333 0.333333 -4.0161 8.33708e-31 8 
14 1 -3.55754e-17 0.666667 0.333333 -4.0161 2.51835e-30 8 
15 1 0.333333 0.666667 0.333333 -4.0161 1.57583e-30 8 
16 1 0.166667 0.166667 0.5 -4.0161 3.88138e-30 8 
19 1 -3.4968e-17 -2.73134e-17 0.666667 -4.0161 3.6022e-30 8 
21 1 0.333333 -4.92079e-17 0.666667 -4.0161 4.0349e-30 8 
22 1 -4.55872e-17 0.333333 0.666667 -4.0161 1.73867e-30 8 
24 1 0.333333 0.333333 0.666667 -4.0161 1.5473e-30 8 
17 1 0.166667 0.5 0.5 -4.0161 9.97681e-30 8 
25 1 -3.89775e-17 0.666667 0.666667 -4.0161 1.77593e-30 8 
27 1 0.333333 0.666667 0.666667 -4.0161 5.05557e-30 8 
18 1 0.166667 0.833333 0.5 -4.0161 1.72918e-29 8 
20 1 0.166667 0.166667 0.833333 -4.0161 8.46514e-30 8 
23 1 0.166667 0.5 0.833333 -4.0161 1.80993e-29 8 
26 1 0.166667 0.833333 0.833333 -4.0161 2.45306e-29 8 
28 1 0.5 0.166667 0.166667 -4.0161 4.1576e-30 8 
29 1 0.666667 -7.74263e-18 -8.11999e-18 -4.0161 1.15168e-30 8 
30 1 0.833333 0.166667 0.166667 -4.0161 6.753e-30 8 
32 1 0.666667 0.333333 -3.80048e-17 -4.0161 3.76002e-30 8 
31 1 0.5 0.5 0.166667 -4.0161 8.58933e-30 8 
35 1 0.666667 0.666667 -2.60016e-17 -4.0161 3.10934e-30 8 
33 1 0.833333 0.5 0.166667 -4.0161 1.3721e-29 8 
34 1 0.5 0.833333 0.166667 -4.0161 6.80857e-30 8 
36 1 0.833333 0.833333 0.166667 -4.0161 5.79275e-30 8 
37 1 0.666667 -3.70086e-17 0.333333 -4.0161 1.36472e-30 8 
38 1 0.666667 0.333333 0.333333 -4.0161 4.82091e-31 8 
39 1 0.666667 0.666667 0.333333 -4.0161 3.17752e-30 8 
40 1 0.5 0.166667 0.5 -4.0161 1.06767e-29 8 
47 1 0.666667 -3.51793e-17 0.666667 -4.0161 2.27689e-30 8 
41 1 0.833333 0.166667 0.5 -4.0161 1.06855e-29 8 
50 1 0.666667 0.333333 0.666667 -4.0161 3.69273e-30 8 
42 1 0.5 0.5 0.5 -4.0161 1.74171e-29 8 
53 1 0.666667 0.666667 0.666667 -4.0161 4.72129e-30 8 
43 1 0.833333 0.5 0.5 -4.0161 1.78269e-29 8 
44 1 0.5 0.833333 0.5 -4.0161 1.38609e-29 8 
45 1 0.833333 0.833333 0.5 -4.0161 1.19515e-29 8 
46 1 0.5 0.166667 0.833333 -4.0161 1.57269e-29 8 
48 1 0.833333 0.166667 0.833333 -4.0161 1.19358e-29 8 
49 1 0.5 0.5 0.833333 -4.0161 1.99778e-29 8 
51 1 0.833333 0.5 0.833333 -4.0161 3.31872e-29 8 
52 1 0.5 0.833333 0.833333 -4.0161 2.33533e-29 8 
54 1 0.833333 0.833333 0.833333 -4.0161 3.42898e-29 8 
ITEM: TIMESTEP
7
ITEM: NUMBER OF ATOMS
54
ITEM: BOX BOUNDS pp pp pp
0.0000000000000000e+00 9.8399999999999999e+00
0.0000000000000000e+00 9.8399999999999999e+00
0.0000000000000000e+00 9.8399999999999999e+00
ITEM: ATOMS id type xs ys zs c_3 c_4 c_5 
1 1 -3.22711e-17 -3.3243e-17 -3.28056e-17 -4.0161 1.52423e-30 8 
2 1 0.166667 0.166667 0.166667 -4.0161 8.22903e-31 8 
3 1 0.333333 -7.46511e-17 -6.2525e-17 -4.0161 3.977e-30 8 
4 1 -7.31931e-17 0.333333 -6.64376e-17 -4.0161 6.13301e-30 8 
6 1 0.333333 0.333333 -3.21739e-17 -4.0161 6.22208e-31 8 
5 1 0.166667 0.5 0.166667 -4.0161 8.24805e-30 8 
7 1 -2.72967e-18 0.666667 -2.53925e-17 -4.0161 2.49335e-30 8 
9 1 0.333333 0.666667 -5.96243e-17 -4.0161 5.31891e-30 8 
8 1 0.166667 0.833333 0.166667 -4.0161 5.77723e-30 8 
10 1 -3.73256e-17 -3.22225e-17 0.333333 -4.0161 4.76038e-31 8 
11 1 0.333333 -4.49073e-17 0.333333 -4.0161 1.83711e-30 8 
12 1 -4.21856e-17 0.333333 0.333333 -4.0161 7.48776e-31 8 
13 1 0.333333 0.333333 0.333333 -4.0161 9.10377e-31 8 
14 1 -4.62682e-17 0.666667 0.333333 -4.0161 3.07083e-30 8 
15 1 0.333333 0.666667 0.333333 -4.0161 2.44741e-30 8 
16 1 0.166667 0.166667 0.5 -4.0161 5.55798e-30 8 
19 1 -4.64625e-17 -3.96583e-17 0.666667 -4.0161 4.37666e-30 8 
21 1 0.333333 -6.19663e-17 0.666667 -4.0161 5.49892e-30 8 
22 1 -5.94876e-17 0.333333 0.666667 -4.0161 1.93361e-30 8 
24 1 0.333333 0.333333 0.666667 -4.0161 2.88369e-30 8 
17 1 0.166667 0.5 0.5 -4.0161 1.376e-29 8 
25 1 -5.11283e-17 0.666667 0.666667 -4.0161 2.42299e-30 8 
27 1 0.333333 0.666667 0.666667 -4.0161 6.38119e-30 8 
18 1 0.166667 0.833333 0.5 -4.0161 2.07243e-29 8 
20 1 0.166667 0.166667 0.833333 -4.0161 7.45934e-30 8 
23 1 0.166667 0.5 0.833333 -4.0161 2.35519e-29 8 
26 1 0.166667 0.833333 0.833333 -4.0161 2.82354e-29 8 
28 1 0.5 0.166667 0.166667 -4.0161 5.9779e-30 8 
29 1 0.666667 -1.61178e-17 -1.45915e-17 -4.0161 1.84541e-30 8 
30 1 0.833333 0.166667 0.166667 -4.0161 6.10178e-30 8 
32 1 0.666667 0.333333 -4.61247e-17 -4.0161 4.98581e-30 8 
31 1 0.5 0.5 0.166667 -4.0161 1.28065e-29 8 
35 1 0.666667 0.666667 -3.66466e-17 -4.0161 4.23434e-30 8 
33 1 0.833333 0.5 0.166667 -4.0161 1.79881e-29 8 
34 1 0.5 0.833333 0.166667 -4.0161 8.60571e-30 8 
36 1 0.833333 0.833333 0.166667 -4.0161 5.21165e-30 8 
37 1 0.666667 -4.60043e-17 0.333333 -4.0161 1.01977e-30 8 
38 1 0.666667 0.333333 0.333333 -4.0161 1.19505e-30 8 
39 1 0.666667 0.666667 0.333333 -4.0161 4.26392e-30 8 
40 1 0.5 0.166667 0.5 -4.0161 1.50534e-29 8 
47 1 0.666667 -4.81685e-17 0.666667 -4.0161 3.54459e-30 8 
41 1 0.833333 0.166667 0.5 -4.0161 1.54204e-29 8 
50 1 0.666667 0.333333 0.666667 -4.0161 4.84862e-30 8 
42 1 0.5 0.5 0.5 -4.0161 2.61333e-29 8 
53 1 0.666667 0.666667 0.666667 -4.0161 6.87615e-30 8 
43 1 0.833333 0.5 0.5 -4.0161 2.32854e-29 8 
44 1 0.5 0.833333 0.5 -4.0161 1.73617e-29 8 
45 1 0.833333 0.833333 0.5 -4.0161 1.62439e-29 8 
46 1 0.5 0.166667 0.833333 -4.0161 1.91888e-29 8 
48 1 0.833333 0.166667 0.833333 -4.0161 1.25078e-29 8 
49 1 0.5 0.5 0.833333 -4.0161 2.92835e-29 8 
51 1 0.833333 0.5 0.833333 -4.0161 4.43598e-29 8 
52 1 0.5 0.833333 0.833333 -4.0161 3.10392e-29 8 
54 1 0.833333 0.833333 0.833333 -4.0161 5.02986e-29 8 
ITEM: TIMESTEP
8
ITEM: NUMBER OF ATOMS
54
ITEM: BOX BOUNDS pp pp pp
0.0000000000000000e+00 9.8399999999999999e+00
0.0000000000000000e+00 9.8399999999999999e+00
0.0000000000000000e+00 9.8399999999999999e+00
ITEM: ATOMS id type xs ys zs c_3 c_4 c_5 
1 1 -4.12142e-17 -4.27694e-17 -4.41424e-17 -4.0161 2.01903e-30 8 
2 1 0.166667 0.166667 0.166667 -4.0161 2.29622e-31 8 
3 1 0.333333 -9.50648e-17 -7.99861e-17 -4.0161 3.01577e-30 8 
4 1 -8.99861e-17 0.333333 -8.21977e-17 -4.0161 5.14725e-30 8 
6 1 0.333333 0.333333 -3.78729e-17 -4.0161 4.28902e-31 8 
5 1 0.166667 0.5 0.166667 -4.0161 1.05653e-29 8 
7 1 -5.39084e-18 0.666667 -3.23915e-17 -4.0161 3.44035e-30 8 
9 1 0.333333 0.666667 -7.24181e-17 -4.0161 4.42854e-30 8 
8 1 0.166667 0.833333 0.166667 -4.0161 5.53949e-30 8 
10 1 -4.23809e-17 -3.66458e-17 0.333333 -4.0161 2.45171e-31 8 
11 1 0.333333 -5.38994e-17 0.333333 -4.0161 2.4193e-30 8 
12 1 -5.19066e-17 0.333333 0.333333 -4.0161 9.63911e-31 8 
13 1 0.333333 0.333333 0.333333 -4.0161 1.21734e-30 8 
14 1 -5.30733e-17 0.666667 0.333333 -4.0161 3.96396e-30 8 
15 1 0.333333 0.666667 0.333333 -4.0161 3.5322e-30 8 
16 1 0.166667 0.166667 0.5 -4.0161 8.33708e-30 8 
19 1 -5.79089e-17 -5.22953e-17 0.666667 -4.0161 5.1009e-30 8 
21 1 0.333333 -7.33158e-17 0.666667 -4.0161 7.18233e-30 8 
22 1 -7.2611e-17 0.333333 0.666667 -4.0161 2.58688e-30 8 
24 1 0.333333 0.333333 0.666667 -4.0161 4.59953e-30 8 
17 1 0.166667 0.5 0.5 -4.0161 1.80455e-29 8 
25 1 -6.32795e-17 0.666667 0.666667 -4.0161 3.30032e-30 8 
27 1 0.333333 0.666667 0.666667 -4.0161 8.1349e-30 8 
18 1 0.166667 0.833333 0.5 -4.0161 2.42898e-29 8 
20 1 0.166667 0.166667 0.833333 -4.0161 7.38188e-30 8 
23 1 0.166667 0.5 0.833333 -4.0161 2.57235e-29 8 
26 1 0.166667 0.833333 0.833333 -4.0161 2.8011e-29 8 
28 1 0.5 0.166667 0.166667 -4.0161 9.14448e-30 8 
29 1 0.666667 -2.62457e-17 -2.23911e-17 -4.0161 2.91232e-30 8 
30 1 0.833333 0.166667 0.166667 -4.0161 6.03957e-30 8 
32 1 0.666667 0.333333 -5.34013e-17 -4.0161 6.01552e-30 8 
31 1 0.5 0.5 0.166667 -4.0161 1.85618e-29 8 
35 1 0.666667 0.666667 -4.66845e-17 -4.0161 5.67057e-30 8 
33 1 0.833333 0.5 0.166667 -4.0161 2.04685e-29 8 
34 1 0.5 0.833333 0.166667 -4.0161 1.00732e-29 8 
36 1 0.833333 0.833333 0.166667 -4.0161 4.90034e-30 8 
37 1 0.666667 -5.32978e-17 0.333333 -4.0161 7.49229e-31 8 
38 1 0.666667 0.333333 0.333333 -4.0161 1.78323e-30 8 
39 1 0.666667 0.666667 0.333333 -4.0161 5.46113e-30 8 
40 1 0.5 0.166667 0.5 -4.0161 1.76852e-29 8 
47 1 0.666667 -6.3115e-17 0.666667 -4.0161 5.11097e-30 8 
41 1 0.833333 0.166667 0.5 -4.0161 1.81586e-29 8 
50 1 0.666667 0.333333 0.666667 -4.0161 6.09125e-30 8 
42 1 0.5 0.5 0.5 -4.0161 3.41332e-29 8 
53 1 0.666667 0.666667 0.666667 -4.0161 9.94933e-30 8 
43 1 0.833333 0.5 0.5 -4.0161 2.64488e-29 8 
44 1 0.5 0.833333 0.5 -4.0161 2.08683e-29 8 
45 1 0.833333 0.833333 0.5 -4.0161 1.88549e-29 8 
46 1 0.5 0.166667 0.833333 -4.0161 2.25984e-29 8 
48 1 0.833333 0.166667 0.833333 -4.0161 1.27185e-29 8 
49 1 0.5 0.5 0.833333 -4.0161 3.84485e-29 8 
51 1 0.833333 0.5 0.833333 -4.0161 5.02752e-29 8 
52 1 0.5 0.833333 0.833333 -4.0161 3.61402e-29 8 
54 1 0.833333 0.833333 0.833333 -4.0161 6.67008e-29 8 
ITEM: TIMESTEP
9
ITEM: NUMBER OF ATOMS
54
ITEM: BOX BOUNDS pp pp pp
0.0000000000000000e+00 9.8399999999999999e+00
0.0000000000000000e+00 9.8399999999999999e+00
0.0000000000000000e+00 9.8399999999999999e+00
ITEM: ATOMS id type xs ys zs c_3 c_4 c_5 
1 1 -5.24905e-17 -5.03522e-17 -5.99266e-17 -4.0161 2.4113e-30 8 
2 1 0.166667 0.166667 0.166667 -4.0161 4.96517e-31 8 
3 1 0.333333 -1.03427e-16 -9.87845e-17 -4.0161 9.41104e-31 8 
4 1 -1.03208e-16 0.333333 -9.52854e-17 -4.0161 1.63483e-30 8 
6 1 0.333333 0.333333 -3.99515e-17 -4.0161 3.71294e-31 8 
5 1 0.166667 0.5 0.166667 -4.0161 1.22991e-29 8 
7 1 -8.73252e-18 0.666667 -4.18755e-17 -4.0161 5.46364e-30 8 
9 1 0.333333 0.666667 -8.45716e-17 -4.0161 2.29721e-30 8 
8 1 0.166667 0.833333 0.166667 -4.0161 4.74392e-30 8 
10 1 -4.31596e-17 -4.11665e-17 0.333333 -4.0161 1.34739e-31 8 
11 1 0.333333 -6.12394e-17 0.333333 -4.0161 3.23961e-30 8 
12 1 -5.89064e-17 0.333333 0.333333 -4.0161 1.19149e-30 8 
13 1 0.333333 0.333333 0.333333 -4.0161 1.70831e-30 8 
14 1 -5.52131e-17 0.666667 0.333333 -4.0161 5.18134e-30 8 
15 1 0.333333 0.666667 0.333333 -4.0161 5.35645e-30 8 
16 1 0.166667 0.166667 0.5 -4.0161 1.12294e-29 8 
19 1 -7.12512e-17 -6.59535e-17 0.666667 -4.0161 5.37302e-30 8 
21 1 0.333333 -8.18956e-17 0.666667 -4.0161 7.32906e-30 8 
22 1 -8.74846e-17 0.333333 0.666667 -4.0161 3.14765e-30 8 
24 1 0.333333 0.333333 0.666667 -4.0161 5.07323e-30 8 
17 1 0.166667 0.5 0.5 -4.0161 2.19601e-29 8 
25 1 -7.60144e-17 0.666667 0.666667 -4.0161 4.83379e-30 8 
27 1 0.333333 0.666667 0.666667 -4.0161 1.1033e-29 8 
18 1 0.166667 0.833333 0.5 -4.0161 2.44761e-29 8 
20 1 0.166667 0.166667 0.833333 -4.0161 7.34694e-30 8 
23 1 0.166667 0.5 0.833333 -4.0161 2.22882e-29 8 
26 1 0.166667 0.833333 0.833333 -4.0161 2.19506e-29 8 
28 1 0.5 0.166667 0.166667 -4.0161 1.32045e-29 8 
29 1 0.666667 -3.57891e-17 -3.27204e-17 -4.0161 4.12592e-30 8 
30 1 0.833333 0.166667 0.166667 -4.0161 6.45755e-30 8 
32 1 0.666667 0.333333 -5.86871e-17 -4.0161 4.58191e-30 8 
31 1 0.5 0.5 0.166667 -4.0161 2.65047e-29 8 
35 1 0.666667 0.666667 -5.74907e-17 -4.0161 7.91684e-30 8 
33 1 0.833333 0.5 0.166667 -4.0161 2.32119e-29 8 
34 1 0.5 0.833333 0.166667 -4.0161 1.12407e-29 8 
36 1 0.833333 0.833333 0.166667 -4.0161 6.667e-30 8 
37 1 0.666667 -5.948e-17 0.333333 -4.0161 4.94406e-31 8 
38 1 0.666667 0.333333 0.333333 -4.0161 3.04224e-30 8 
39 1 0.666667 0.666667 0.333333 -4.0161 7.35455e-30 8 
40 1 0.5 0.166667 0.5 -4.0161 1.73942e-29 8 
47 1 0.666667 -7.6879e-17 0.666667 -4.0161 7.40122e-30 8 
41 1 0.833333 0.166667 0.5 -4.0161 1.66824e-29 8 
50 1 0.666667 0.333333 0.666667 -4.0161 7.57491e-30 8 
42 1 0.5 0.5 0.5 -4.0161 3.87578e-29 8 
53 1 0.666667 0.666667 0.666667 -4.0161 1.49887e-29 8 
43 1 0.833333 0.5 0.5 -4.0161 2.60784e-29 8 
44 1 0.5 0.833333 0.5 -4.0161 2.19029e-29 8 
45 1 0.833333 0.833333 0.5 -4.0161 1.71013e-29 8 
46 1 0.5 0.166667 0.833333 -4.0161 2.19002e-29 8 
48 1 0.833333 0.166667 0.833333 -4.0161 1.08528e-29 8 
49 1 0.5 0.5 0.833333 -4.0161 4.40971e-29 8 
51 1 0.833333 0.5 0.833333 -4.0161 4.23066e-29 8 
52 1 0.5 0.833333 0.833333 -4.0161 3.59777e-29 8 
54 1 0.833333 0.833333 0.833333 -4.0161 7.20465e-29 8 
ITEM: TIMESTEP
10
ITEM: NUMBER OF ATOMS
54
ITEM: BOX BOUNDS pp pp pp
0.0000000000000000e+00 9.8399999999999999e+00
0.0000000000000000e+00 9.8399999999999999e+00
0.0000000000000000e+00 9.8399999999999999e+00
ITEM: ATOMS id type xs ys zs c_3 c_4 c_5 
1 1 -6.64891e-17 -5.71578e-17 -7.3646e-17 -4.0161 2.42532e-30 8 
2 1 0.166667 0.166667 0.166667 -4.0161 9.00994e-31 8 
3 1 0.333333 -9.74031e-17 -1.05094e-16 -4.0161 8.2489e-31 8 
4 1 -1.06953e-16 0.333333 -9.17768e-17 -4.0161 9.54811e-31 8 
6 1 0.333333 0.333333 -3.69029e-17 -4.0161 4.6868e-31 8 
5 1 0.166667 0.5 0.166667 -4.0161 1.07817e-29 8 
7 1 -1.41156e-17 0.666667 -5.3746e-17 -4.0161 7.75338e-30 8 
9 1 0.333333 0.666667 -9.77675e-17 -4.0161 8.23151e-31 8 
8 1 0.166667 0.833333 0.166667 -4.0161 2.9851e-30 8 
10 1 -3.9467e-17 -4.32574e-17 0.333333 -4.0161 1.93266e-31 8 
11 1 0.333333 -6.68302e-17 0.333333 -4.0161 4.18736e-30 8 
12 1 -6.3185e-17 0.333333 0.333333 -4.0161 1.27332e-30 8 
13 1 0.333333 0.333333 0.333333 -4.0161 2.35005e-30 8 
14 1 -5.34649e-17 0.666667 0.333333 -4.0161 6.24915e-30 8 
15 1 0.333333 0.666667 0.333333 -4.0161 8.83024e-30 8 
16 1 0.166667 0.166667 0.5 -4.0161 1.17005e-29 8 
19 1 -8.69756e-17 -7.63561e-17 0.666667 -4.0161 5.46551e-30 8 
21 1 0.333333 -9.30516e-17 0.666667 -4.0161 5.59686e-30 8 
22 1 -1.07025e-16 0.333333 0.666667 -4.0161 4.24124e-30 8 
24 1 0.333333 0.333333 0.666667 -4.0161 5.61599e-30 8 
17 1 0.166667 0.5 0.5 -4.0161 2.27825e-29 8 
25 1 -9.10828e-17 0.666667 0.666667 -4.0161 6.32462e-30 8 
27 1 0.333333 0.666667 0.666667 -4.0161 1.15363e-29 8 
18 1 0.166667 0.833333 0.5 -4.0161 1.98705e-29 8 
20 1 0.166667 0.166667 0.833333 -4.0161 5.74374e-30 8 
23 1 0.166667 0.5 0.833333 -4.0161 1.72857e-29 8 
26 1 0.166667 0.833333 0.833333 -4.0161 1.38319e-29 8 
28 1 0.5 0.166667 0.166667 -4.0161 1.522e-29 8 
29 1 0.666667 -4.2425e-17 -4.36551e-17 -4.0161 4.60514e-30 8 
30 1 0.833333 0.166667 0.166667 -4.0161 6.30288e-30 8 
32 1 0.666667 0.333333 -6.05589e-17 -4.0161 2.03352e-30 8 
31 1 0.5 0.5 0.166667 -4.0161 2.97132e-29 8 
35 1 0.666667 0.666667 -6.93749e-17 -4.0161 1.04793e-29 8 
33 1 0.833333 0.5 0.166667 -4.0161 2.56365e-29 8 
34 1 0.5 0.833333 0.166667 -4.0161 1.26779e-29 8 
36 1 0.833333 0.833333 0.166667 -4.0161 1.02353e-29 8 