LAMMPS (17 Nov 2016)
# bulk Silicon lattice
units            metal
boundary         p p p

atom_style       atomic

variable         x index 5.4305 5.4306 5.4307 5.4308 5.4309 5.4310 5.4311 5.4312 5.4313 5.4314 5.4315

lattice          diamond $x
lattice          diamond 5.4305
Lattice spacing in x,y,z = 5.4305 5.4305 5.4305
#lattice         diamond 5.431
#lattice         fcc 3.615
#lattice         bcc 3.28
#lattice         sc 2.60

region           box block 0 3 0 3 0 3
create_box       1 box
Created orthogonal box = (0 0 0) to (16.2915 16.2915 16.2915)
  1 by 1 by 1 MPI processor grid
create_atoms     1 box
Created 216 atoms

pair_style       sw
pair_coeff       * * Si.sw Si
Reading potential file Si.sw with DATE: 2007-06-11
mass             1 28
neighbor         1.0 bin
neighbor         1.0 bin
neigh_modify     every 1 delay 5 check yes

variable         P equal pe/216
variable         r equal 216/($x*3)^3
variable         r equal 216/(5.4305*3)^3
timestep         0.005
thermo           10

min_style        sd
minimize         1.0e-12 1.0e-12 1000 1000
WARNING: Resetting reneighboring criteria during minimization (../min.cpp:168)
Neighbor list info ...
  1 neighbor list requests
  update every 1 steps, delay 0 steps, check yes
  max neighbors/atom: 2000, page size: 100000
  master list distance cutoff = 4.77118
  ghost atom cutoff = 4.77118
  binsize = 2.38559 -> bins = 7 7 7
Memory usage per processor = 3.62447 Mbytes
Step Temp E_pair E_mol TotEng Press 
       0            0   -936.70552            0   -936.70552    252.09015 
       1            0   -936.70552            0   -936.70552    252.09015 
Loop time of 0.00218987 on 1 procs for 1 steps with 216 atoms

0.0% CPU use with 1 MPI tasks x no OpenMP threads

Minimization stats:
  Stopping criterion = energy tolerance
  Energy initial, next-to-last, final = 
        -936.705515465     -936.705515465     -936.705515465
  Force two-norm initial, final = 2.46695e-13 1.80489e-13
  Force max component initial, final = 2.11714e-14 2.17541e-14
  Final line search alpha, max atom move = 1 2.17541e-14
  Iterations, force evaluations = 1 2

MPI task timing breakdown:
Section |  min time  |  avg time  |  max time  |%varavg| %total
---------------------------------------------------------------
Pair    | 0.0021338  | 0.0021338  | 0.0021338  |   0.0 | 97.44
Neigh   | 0          | 0          | 0          |   0.0 |  0.00
Comm    | 1.6451e-05 | 1.6451e-05 | 1.6451e-05 |   0.0 |  0.75
Output  | 0          | 0          | 0          |   0.0 |  0.00
Modify  | 0          | 0          | 0          |   0.0 |  0.00
Other   |            | 3.958e-05  |            |       |  1.81

Nlocal:    216 ave 216 max 216 min
Histogram: 1 0 0 0 0 0 0 0 0 0
Nghost:    648 ave 648 max 648 min
Histogram: 1 0 0 0 0 0 0 0 0 0
Neighs:    0 ave 0 max 0 min
Histogram: 1 0 0 0 0 0 0 0 0 0
FullNghs:  6048 ave 6048 max 6048 min
Histogram: 1 0 0 0 0 0 0 0 0 0

Total # of neighbors = 6048
Ave neighs/atom = 28
Neighbor list builds = 0
Dangerous builds = 0

compute          3 all pe/atom
compute          4 all ke/atom
compute          5 all coord/atom 3.0
dump             1 all custom 1 dc.lammpstrj id type xs ys zs c_3 c_4 c_5

fix 		 1 all nvt temp 0.1 0.1 2 drag 0.2
run 1000
Neighbor list info ...
  2 neighbor list requests
  update every 1 steps, delay 5 steps, check yes
  max neighbors/atom: 2000, page size: 100000
  master list distance cutoff = 4.77118
  ghost atom cutoff = 4.77118
  binsize = 2.38559 -> bins = 7 7 7
Memory usage per processor = 4.26265 Mbytes
Step Temp E_pair E_mol TotEng Press 
       1            0   -936.70552            0   -936.70552    252.09015 
      10 1.488533e-25   -936.70552            0   -936.70552    252.09015 
      20 2.3451227e-25   -936.70552            0   -936.70552    252.09015 
      30 2.7865456e-25   -936.70552            0   -936.70552    252.09015 
      40 3.2933184e-25   -936.70552            0   -936.70552    252.09015 
      50 3.7918342e-25   -936.70552            0   -936.70552    252.09015 
      60 4.4216365e-25   -936.70552            0   -936.70552    252.09015 
      70 4.5206571e-25   -936.70552            0   -936.70552    252.09015 
      80 5.0097055e-25   -936.70552            0   -936.70552    252.09015 
      90 6.463079e-25   -936.70552            0   -936.70552    252.09015 
     100 6.7662833e-25   -936.70552            0   -936.70552    252.09015 
     110 7.7199099e-25   -936.70552            0   -936.70552    252.09015 
     120 8.2192434e-25   -936.70552            0   -936.70552    252.09015 
     130 8.9133773e-25   -936.70552            0   -936.70552    252.09015 
     140 1.0139444e-24   -936.70552            0   -936.70552    252.09015 
     150 1.1588291e-24   -936.70552            0   -936.70552    252.09015 
     160 1.2085051e-24   -936.70552            0   -936.70552    252.09015 
     170 1.3177696e-24   -936.70552            0   -936.70552    252.09015 
     180 1.4126675e-24   -936.70552            0   -936.70552    252.09015 
     190 1.4335627e-24   -936.70552            0   -936.70552    252.09015 
     200 1.6206901e-24   -936.70552            0   -936.70552    252.09015 
     210 1.5612711e-24   -936.70552            0   -936.70552    252.09015 
     220 1.7540301e-24   -936.70552            0   -936.70552    252.09015 
     230 1.9403549e-24   -936.70552            0   -936.70552    252.09015 
     240 1.8164307e-24   -936.70552            0   -936.70552    252.09015 
     250 2.1676161e-24   -936.70552            0   -936.70552    252.09015 
     260 2.1608875e-24   -936.70552            0   -936.70552    252.09015 
     270 2.1619197e-24   -936.70552            0   -936.70552    252.09015 
     280 2.4271107e-24   -936.70552            0   -936.70552    252.09015 
     290 2.6415533e-24   -936.70552            0   -936.70552    252.09015 
     300 2.6971908e-24   -936.70552            0   -936.70552    252.09015 
     310 3.0334947e-24   -936.70552            0   -936.70552    252.09015 
     320 3.0556425e-24   -936.70552            0   -936.70552    252.09015 
     330 3.0369752e-24   -936.70552            0   -936.70552    252.09015 
     340 3.455484e-24   -936.70552            0   -936.70552    252.09015 
     350 3.3754296e-24   -936.70552            0   -936.70552    252.09015 
     360 3.507363e-24   -936.70552            0   -936.70552    252.09015 
     370 3.8654556e-24   -936.70552            0   -936.70552    252.09015 
     380 4.0435731e-24   -936.70552            0   -936.70552    252.09015 
     390 3.8724879e-24   -936.70552            0   -936.70552    252.09015 
     400 4.3754266e-24   -936.70552            0   -936.70552    252.09015 
     410 4.3989049e-24   -936.70552            0   -936.70552    252.09015 
     420 4.4452813e-24   -936.70552            0   -936.70552    252.09015 
     430 4.9986646e-24   -936.70552            0   -936.70552    252.09015 
     440 4.4913868e-24   -936.70552            0   -936.70552    252.09015 
     450 4.6251593e-24   -936.70552            0   -936.70552    252.09015 
     460 5.545798e-24   -936.70552            0   -936.70552    252.09015 
     470 5.1469774e-24   -936.70552            0   -936.70552    252.09015 
     480 5.2192393e-24   -936.70552            0   -936.70552    252.09015 
     490 6.0176239e-24   -936.70552            0   -936.70552    252.09015 
     500 5.8883049e-24   -936.70552            0   -936.70552    252.09015 
     510 5.9005575e-24   -936.70552            0   -936.70552    252.09015 
     520 6.3751093e-24   -936.70552            0   -936.70552    252.09015 
     530 5.9250033e-24   -936.70552            0   -936.70552    252.09015 
     540 6.8757454e-24   -936.70552            0   -936.70552    252.09015 
     550 6.4135594e-24   -936.70552            0   -936.70552    252.09015 
     560 6.7981782e-24   -936.70552            0   -936.70552    252.09015 
     570 7.5107205e-24   -936.70552            0   -936.70552    252.09015 
     580 7.0928607e-24   -936.70552            0   -936.70552    252.09015 
     590 7.7643832e-24   -936.70552            0   -936.70552    252.09015 
     600 7.8205455e-24   -936.70552            0   -936.70552    252.09015 
     610  8.02634e-24   -936.70552            0   -936.70552    252.09015 
     620 8.7561968e-24   -936.70552            0   -936.70552    252.09015 
     630 7.8733383e-24   -936.70552            0   -936.70552    252.09015 
     640 8.7470249e-24   -936.70552            0   -936.70552    252.09015 
     650 9.2382031e-24   -936.70552            0   -936.70552    252.09015 
     660 9.5536432e-24   -936.70552            0   -936.70552    252.09015 
     670 8.727078e-24   -936.70552            0   -936.70552    252.09015 
     680 9.8981453e-24   -936.70552            0   -936.70552    252.09015 
     690 1.0307785e-23   -936.70552            0   -936.70552    252.09015 
     700 9.2845482e-24   -936.70552            0   -936.70552    252.09015 
     710 1.0150663e-23   -936.70552            0   -936.70552    252.09015 
     720 1.0339454e-23   -936.70552            0   -936.70552    252.09015 
     730 1.0346398e-23   -936.70552            0   -936.70552    252.09015 
     740 1.0333597e-23   -936.70552            0   -936.70552    252.09015 
     750 1.1565534e-23   -936.70552            0   -936.70552    252.09015 
     760 1.0621334e-23   -936.70552            0   -936.70552    252.09015 
     770 1.1748396e-23   -936.70552            0   -936.70552    252.09015 
     780 1.1663957e-23   -936.70552            0   -936.70552    252.09015 
     790 1.081808e-23   -936.70552            0   -936.70552    252.09015 
     800 1.261705e-23   -936.70552            0   -936.70552    252.09015 
     810 1.2284173e-23   -936.70552            0   -936.70552    252.09015 
     820 1.1431273e-23   -936.70552            0   -936.70552    252.09015 
     830 1.3838008e-23   -936.70552            0   -936.70552    252.09015 
     840 1.2404371e-23   -936.70552            0   -936.70552    252.09015 
     850 1.289554e-23   -936.70552            0   -936.70552    252.09015 
     860 1.3243733e-23   -936.70552            0   -936.70552    252.09015 
     870 1.364403e-23   -936.70552            0   -936.70552    252.09015 
     880 1.4100776e-23   -936.70552            0   -936.70552    252.09015 
     890 1.2844597e-23   -936.70552            0   -936.70552    252.09015 
     900 1.4802856e-23   -936.70552            0   -936.70552    252.09015 
     910 1.4299493e-23   -936.70552            0   -936.70552    252.09015 
     920 1.4541077e-23   -936.70552            0   -936.70552    252.09015 
     930 1.5138447e-23   -936.70552            0   -936.70552    252.09015 
     940 1.5871641e-23   -936.70552            0   -936.70552    252.09015 
     950 1.5750758e-23   -936.70552            0   -936.70552    252.09015 
     960 1.5789857e-23   -936.70552            0   -936.70552    252.09015 
     970 1.554771e-23   -936.70552            0   -936.70552    252.09015 
     980 1.8109222e-23   -936.70552            0   -936.70552    252.09015 
     990 1.6652305e-23   -936.70552            0   -936.70552    252.09015 
    1000 1.6858541e-23   -936.70552            0   -936.70552    252.09015 
    1001 1.7728144e-23   -936.70552            0   -936.70552    252.09015 
Loop time of 0.936148 on 1 procs for 1000 steps with 216 atoms

Performance: 461.466 ns/day, 0.052 hours/ns, 1068.207 timesteps/s
98.3% CPU use with 1 MPI tasks x no OpenMP threads

MPI task timing breakdown:
Section |  min time  |  avg time  |  max time  |%varavg| %total
---------------------------------------------------------------
Pair    | 0.44071    | 0.44071    | 0.44071    |   0.0 | 47.08
Neigh   | 0          | 0          | 0          |   0.0 |  0.00
Comm    | 0.0033624  | 0.0033624  | 0.0033624  |   0.0 |  0.36
Output  | 0.48308    | 0.48308    | 0.48308    |   0.0 | 51.60
Modify  | 0.0065379  | 0.0065379  | 0.0065379  |   0.0 |  0.70
Other   |            | 0.002456   |            |       |  0.26

Nlocal:    216 ave 216 max 216 min
Histogram: 1 0 0 0 0 0 0 0 0 0
Nghost:    648 ave 648 max 648 min
Histogram: 1 0 0 0 0 0 0 0 0 0
Neighs:    0 ave 0 max 0 min
Histogram: 1 0 0 0 0 0 0 0 0 0
FullNghs:  6048 ave 6048 max 6048 min
Histogram: 1 0 0 0 0 0 0 0 0 0

Total # of neighbors = 6048
Ave neighs/atom = 28
Neighbor list builds = 0
Dangerous builds = 0
unfix		 1

print            "@@@@ (lattice parameter, rho, energy per atom):  $x $r $P"
@@@@ (lattice parameter, rho, energy per atom):  5.4305 0.0499540302960965 -4.33659960863476

clear
next             x
jump             in.Silicon
# bulk Silicon lattice
units            metal
boundary         p p p

atom_style       atomic

variable         x index 5.4305 5.4306 5.4307 5.4308 5.4309 5.4310 5.4311 5.4312 5.4313 5.4314 5.4315

lattice          diamond $x
lattice          diamond 5.4306
Lattice spacing in x,y,z = 5.4306 5.4306 5.4306
#lattice         diamond 5.431
#lattice         fcc 3.615
#lattice         bcc 3.28
#lattice         sc 2.60

region           box block 0 3 0 3 0 3
create_box       1 box
Created orthogonal box = (0 0 0) to (16.2918 16.2918 16.2918)
  1 by 1 by 1 MPI processor grid
create_atoms     1 box
Created 216 atoms

pair_style       sw
pair_coeff       * * Si.sw Si
Reading potential file Si.sw with DATE: 2007-06-11
mass             1 28
neighbor         1.0 bin
neighbor         1.0 bin
neigh_modify     every 1 delay 5 check yes

variable         P equal pe/216
variable         r equal 216/($x*3)^3
variable         r equal 216/(5.4306*3)^3
timestep         0.005
thermo           10

min_style        sd
minimize         1.0e-12 1.0e-12 1000 1000
WARNING: Resetting reneighboring criteria during minimization (../min.cpp:168)
Neighbor list info ...
  1 neighbor list requests
  update every 1 steps, delay 0 steps, check yes
  max neighbors/atom: 2000, page size: 100000
  master list distance cutoff = 4.77118
  ghost atom cutoff = 4.77118
  binsize = 2.38559 -> bins = 7 7 7
Memory usage per processor = 3.62447 Mbytes
Step Temp E_pair E_mol TotEng Press 
       0            0   -936.70555            0   -936.70555    196.02487 
       1            0   -936.70555            0   -936.70555    196.02487 
Loop time of 0.00132561 on 1 procs for 1 steps with 216 atoms

0.0% CPU use with 1 MPI tasks x no OpenMP threads

Minimization stats:
  Stopping criterion = energy tolerance
  Energy initial, next-to-last, final = 
        -936.705548871     -936.705548871     -936.705548871
  Force two-norm initial, final = 2.57641e-13 1.8246e-13
  Force max component initial, final = 2.08185e-14 2.16806e-14
  Final line search alpha, max atom move = 1 2.16806e-14
  Iterations, force evaluations = 1 2

MPI task timing breakdown:
Section |  min time  |  avg time  |  max time  |%varavg| %total
---------------------------------------------------------------
Pair    | 0.0012925  | 0.0012925  | 0.0012925  |   0.0 | 97.50
Neigh   | 0          | 0          | 0          |   0.0 |  0.00
Comm    | 9.2983e-06 | 9.2983e-06 | 9.2983e-06 |   0.0 |  0.70
Output  | 0          | 0          | 0          |   0.0 |  0.00
Modify  | 0          | 0          | 0          |   0.0 |  0.00
Other   |            | 2.384e-05  |            |       |  1.80

Nlocal:    216 ave 216 max 216 min
Histogram: 1 0 0 0 0 0 0 0 0 0
Nghost:    648 ave 648 max 648 min
Histogram: 1 0 0 0 0 0 0 0 0 0
Neighs:    0 ave 0 max 0 min
Histogram: 1 0 0 0 0 0 0 0 0 0
FullNghs:  6048 ave 6048 max 6048 min
Histogram: 1 0 0 0 0 0 0 0 0 0

Total # of neighbors = 6048
Ave neighs/atom = 28
Neighbor list builds = 0
Dangerous builds = 0

compute          3 all pe/atom
compute          4 all ke/atom
compute          5 all coord/atom 3.0
dump             1 all custom 1 dc.lammpstrj id type xs ys zs c_3 c_4 c_5

fix 		 1 all nvt temp 0.1 0.1 2 drag 0.2
run 1000
Neighbor list info ...
  2 neighbor list requests
  update every 1 steps, delay 5 steps, check yes
  max neighbors/atom: 2000, page size: 100000
  master list distance cutoff = 4.77118
  ghost atom cutoff = 4.77118
  binsize = 2.38559 -> bins = 7 7 7
Memory usage per processor = 4.26265 Mbytes
Step Temp E_pair E_mol TotEng Press 
       1            0   -936.70555            0   -936.70555    196.02487 
      10 1.6272565e-25   -936.70555            0   -936.70555    196.02487 
      20 2.3497096e-25   -936.70555            0   -936.70555    196.02487 
      30 2.8880508e-25   -936.70555            0   -936.70555    196.02487 
      40 3.1726474e-25   -936.70555            0   -936.70555    196.02487 
      50 3.7630478e-25   -936.70555            0   -936.70555    196.02487 
      60 4.6401903e-25   -936.70555            0   -936.70555    196.02487 
      70 5.0017546e-25   -936.70555            0   -936.70555    196.02487 
      80 5.5896228e-25   -936.70555            0   -936.70555    196.02487 
      90 6.3603785e-25   -936.70555            0   -936.70555    196.02487 
     100 7.3330313e-25   -936.70555            0   -936.70555    196.02487 
     110 7.7287109e-25   -936.70555            0   -936.70555    196.02487 
     120 8.2759353e-25   -936.70555            0   -936.70555    196.02487 
     130 9.8395924e-25   -936.70555            0   -936.70555    196.02487 
     140 9.8497423e-25   -936.70555            0   -936.70555    196.02487 
     150 1.1401685e-24   -936.70555            0   -936.70555    196.02487 
     160 1.2902428e-24   -936.70555            0   -936.70555    196.02487 
     170 1.4031391e-24   -936.70555            0   -936.70555    196.02487 
     180 1.3399268e-24   -936.70555            0   -936.70555    196.02487 
     190 1.5438475e-24   -936.70555            0   -936.70555    196.02487 
     200 1.5704738e-24   -936.70555            0   -936.70555    196.02487 
     210 1.7209461e-24   -936.70555            0   -936.70555    196.02487 
     220 2.0818108e-24   -936.70555            0   -936.70555    196.02487 
     230 2.1174403e-24   -936.70555            0   -936.70555    196.02487 
     240 2.0556803e-24   -936.70555            0   -936.70555    196.02487 
     250 2.4430594e-24   -936.70555            0   -936.70555    196.02487 
     260 2.4840243e-24   -936.70555            0   -936.70555    196.02487 
     270 2.4659654e-24   -936.70555            0   -936.70555    196.02487 
     280 2.7013175e-24   -936.70555            0   -936.70555    196.02487 
     290 2.7799161e-24   -936.70555            0   -936.70555    196.02487 
     300 2.7914884e-24   -936.70555            0   -936.70555    196.02487 
     310 2.8739416e-24   -936.70555            0   -936.70555    196.02487 
     320 3.3139803e-24   -936.70555            0   -936.70555    196.02487 
     330 3.7691372e-24   -936.70555            0   -936.70555    196.02487 
     340 3.5313907e-24   -936.70555            0   -936.70555    196.02487 
     350 3.6539822e-24   -936.70555            0   -936.70555    196.02487 
     360 4.4187045e-24   -936.70555            0   -936.70555    196.02487 
     370 4.0268292e-24   -936.70555            0   -936.70555    196.02487 
     380 4.4775616e-24   -936.70555            0   -936.70555    196.02487 
     390 4.4424894e-24   -936.70555            0   -936.70555    196.02487 
     400 4.8983651e-24   -936.70555            0   -936.70555    196.02487 
     410 5.0221635e-24   -936.70555            0   -936.70555    196.02487 
     420 5.137101e-24   -936.70555            0   -936.70555    196.02487 
     430 4.9909082e-24   -936.70555            0   -936.70555    196.02487 
     440 5.4663233e-24   -936.70555            0   -936.70555    196.02487 
     450 5.7274627e-24   -936.70555            0   -936.70555    196.02487 
     460 5.6506289e-24   -936.70555            0   -936.70555    196.02487 
     470 5.7983128e-24   -936.70555            0   -936.70555    196.02487 
     480 5.7800553e-24   -936.70555            0   -936.70555    196.02487 
     490 6.4546133e-24   -936.70555            0   -936.70555    196.02487 
     500 6.2414126e-24   -936.70555            0   -936.70555    196.02487 
     510 6.7727489e-24   -936.70555            0   -936.70555    196.02487 
     520 6.5787539e-24   -936.70555            0   -936.70555    196.02487 
     530 6.7720664e-24   -936.70555            0   -936.70555    196.02487 
     540 7.3719805e-24   -936.70555            0   -936.70555    196.02487 
     550 6.952162e-24   -936.70555            0   -936.70555    196.02487 
     560 6.9842214e-24   -936.70555            0   -936.70555    196.02487 
     570 8.1939054e-24   -936.70555            0   -936.70555    196.02487 
     580 7.7612122e-24   -936.70555            0   -936.70555    196.02487 
     590 8.1379834e-24   -936.70555            0   -936.70555    196.02487 
     600 8.2035642e-24   -936.70555            0   -936.70555    196.02487 
     610 9.0433581e-24   -936.70555            0   -936.70555    196.02487 
     620 8.8233516e-24   -936.70555            0   -936.70555    196.02487 
     630 8.755438e-24   -936.70555            0   -936.70555    196.02487 
     640 9.3159933e-24   -936.70555            0   -936.70555    196.02487 
     650 8.7735138e-24   -936.70555            0   -936.70555    196.02487 
     660 1.0236388e-23   -936.70555            0   -936.70555    196.02487 
     670 9.5119232e-24   -936.70555            0   -936.70555    196.02487 
     680 1.0047352e-23   -936.70555            0   -936.70555    196.02487 
     690 1.0950947e-23   -936.70555            0   -936.70555    196.02487 
     700 1.1277535e-23   -936.70555            0   -936.70555    196.02487 
     710 9.7469147e-24   -936.70555            0   -936.70555    196.02487 
     720 1.1083278e-23   -936.70555            0   -936.70555    196.02487 
     730 1.1063239e-23   -936.70555            0   -936.70555    196.02487 
     740 1.0697605e-23   -936.70555            0   -936.70555    196.02487 
     750 1.1911245e-23   -936.70555            0   -936.70555    196.02487 
     760 1.106915e-23   -936.70555            0   -936.70555    196.02487 
     770 1.1322593e-23   -936.70555            0   -936.70555    196.02487 
     780 1.333926e-23   -936.70555            0   -936.70555    196.02487 
     790 1.2333023e-23   -936.70555            0   -936.70555    196.02487 
     800 1.1921034e-23   -936.70555            0   -936.70555    196.02487 
     810 1.3133165e-23   -936.70555            0   -936.70555    196.02487 
     820 1.3062394e-23   -936.70555            0   -936.70555    196.02487 
     830 1.3449647e-23   -936.70555            0   -936.70555    196.02487 
     840 1.3451265e-23   -936.70555            0   -936.70555    196.02487 
     850 1.4161477e-23   -936.70555            0   -936.70555    196.02487 
     860 1.453242e-23   -936.70555            0   -936.70555    196.02487 
     870 1.5422153e-23   -936.70555            0   -936.70555    196.02487 
     880 1.3402592e-23   -936.70555            0   -936.70555    196.02487 
     890 1.5876956e-23   -936.70555            0   -936.70555    196.02487 
     900 1.6055439e-23   -936.70555            0   -936.70555    196.02487 
     910  1.59757e-23   -936.70555            0   -936.70555    196.02487 
     920 1.534372e-23   -936.70555            0   -936.70555    196.02487 
     930 1.6722235e-23   -936.70555            0   -936.70555    196.02487 
     940 1.7331068e-23   -936.70555            0   -936.70555    196.02487 
     950 1.6727633e-23   -936.70555            0   -936.70555    196.02487 
     960 1.7485312e-23   -936.70555            0   -936.70555    196.02487 
     970 1.7341559e-23   -936.70555            0   -936.70555    196.02487 
     980 1.8432644e-23   -936.70555            0   -936.70555    196.02487 
     990 1.657447e-23   -936.70555            0   -936.70555    196.02487 
    1000 1.8862716e-23   -936.70555            0   -936.70555    196.02487 
    1001 1.7772836e-23   -936.70555            0   -936.70555    196.02487 
Loop time of 0.948631 on 1 procs for 1000 steps with 216 atoms

Performance: 455.393 ns/day, 0.053 hours/ns, 1054.151 timesteps/s
99.1% CPU use with 1 MPI tasks x no OpenMP threads

MPI task timing breakdown:
Section |  min time  |  avg time  |  max time  |%varavg| %total
---------------------------------------------------------------
Pair    | 0.44827    | 0.44827    | 0.44827    |   0.0 | 47.25
Neigh   | 0          | 0          | 0          |   0.0 |  0.00
Comm    | 0.0034335  | 0.0034335  | 0.0034335  |   0.0 |  0.36
Output  | 0.48801    | 0.48801    | 0.48801    |   0.0 | 51.44
Modify  | 0.0064728  | 0.0064728  | 0.0064728  |   0.0 |  0.68
Other   |            | 0.002446   |            |       |  0.26

Nlocal:    216 ave 216 max 216 min
Histogram: 1 0 0 0 0 0 0 0 0 0
Nghost:    648 ave 648 max 648 min
Histogram: 1 0 0 0 0 0 0 0 0 0
Neighs:    0 ave 0 max 0 min
Histogram: 1 0 0 0 0 0 0 0 0 0
FullNghs:  6048 ave 6048 max 6048 min
Histogram: 1 0 0 0 0 0 0 0 0 0

Total # of neighbors = 6048
Ave neighs/atom = 28
Neighbor list builds = 0
Dangerous builds = 0
unfix		 1

print            "@@@@ (lattice parameter, rho, energy per atom):  $x $r $P"
@@@@ (lattice parameter, rho, energy per atom):  5.4306 0.0499512707606617 -4.33659976329051

clear
next             x
jump             in.Silicon
# bulk Silicon lattice
units            metal
boundary         p p p

atom_style       atomic

variable         x index 5.4305 5.4306 5.4307 5.4308 5.4309 5.4310 5.4311 5.4312 5.4313 5.4314 5.4315

lattice          diamond $x
lattice          diamond 5.4307
Lattice spacing in x,y,z = 5.4307 5.4307 5.4307
#lattice         diamond 5.431
#lattice         fcc 3.615
#lattice         bcc 3.28
#lattice         sc 2.60

region           box block 0 3 0 3 0 3
create_box       1 box
Created orthogonal box = (0 0 0) to (16.2921 16.2921 16.2921)
  1 by 1 by 1 MPI processor grid
create_atoms     1 box
Created 216 atoms

pair_style       sw
pair_coeff       * * Si.sw Si
Reading potential file Si.sw with DATE: 2007-06-11
mass             1 28
neighbor         1.0 bin
neighbor         1.0 bin
neigh_modify     every 1 delay 5 check yes

variable         P equal pe/216
variable         r equal 216/($x*3)^3
variable         r equal 216/(5.4307*3)^3
timestep         0.005
thermo           10

min_style        sd
minimize         1.0e-12 1.0e-12 1000 1000
WARNING: Resetting reneighboring criteria during minimization (../min.cpp:168)
Neighbor list info ...
  1 neighbor list requests
  update every 1 steps, delay 0 steps, check yes
  max neighbors/atom: 2000, page size: 100000
  master list distance cutoff = 4.77118
  ghost atom cutoff = 4.77118
  binsize = 2.38559 -> bins = 7 7 7
Memory usage per processor = 3.62447 Mbytes
Step Temp E_pair E_mol TotEng Press 
       0            0   -936.70557            0   -936.70557    139.96968 
       1            0   -936.70557            0   -936.70557    139.96968 
Loop time of 0.00139594 on 1 procs for 1 steps with 216 atoms

0.0% CPU use with 1 MPI tasks x no OpenMP threads

Minimization stats:
  Stopping criterion = energy tolerance
  Energy initial, next-to-last, final = 
        -936.705573919     -936.705573919     -936.705573919
  Force two-norm initial, final = 2.42456e-13 1.93545e-13
  Force max component initial, final = 2.15507e-14 2.28424e-14
  Final line search alpha, max atom move = 1 2.28424e-14
  Iterations, force evaluations = 1 2

MPI task timing breakdown:
Section |  min time  |  avg time  |  max time  |%varavg| %total
---------------------------------------------------------------
Pair    | 0.0013599  | 0.0013599  | 0.0013599  |   0.0 | 97.42
Neigh   | 0          | 0          | 0          |   0.0 |  0.00
Comm    | 9.7752e-06 | 9.7752e-06 | 9.7752e-06 |   0.0 |  0.70
Output  | 0          | 0          | 0          |   0.0 |  0.00
Modify  | 0          | 0          | 0          |   0.0 |  0.00
Other   |            | 2.623e-05  |            |       |  1.88

Nlocal:    216 ave 216 max 216 min
Histogram: 1 0 0 0 0 0 0 0 0 0
Nghost:    648 ave 648 max 648 min
Histogram: 1 0 0 0 0 0 0 0 0 0
Neighs:    0 ave 0 max 0 min
Histogram: 1 0 0 0 0 0 0 0 0 0
FullNghs:  6048 ave 6048 max 6048 min
Histogram: 1 0 0 0 0 0 0 0 0 0

Total # of neighbors = 6048
Ave neighs/atom = 28
Neighbor list builds = 0
Dangerous builds = 0

compute          3 all pe/atom
compute          4 all ke/atom
compute          5 all coord/atom 3.0
dump             1 all custom 1 dc.lammpstrj id type xs ys zs c_3 c_4 c_5

fix 		 1 all nvt temp 0.1 0.1 2 drag 0.2
run 1000
Neighbor list info ...
  2 neighbor list requests
  update every 1 steps, delay 5 steps, check yes
  max neighbors/atom: 2000, page size: 100000
  master list distance cutoff = 4.77118
  ghost atom cutoff = 4.77118
  binsize = 2.38559 -> bins = 7 7 7
Memory usage per processor = 4.26265 Mbytes
Step Temp E_pair E_mol TotEng Press 
       1            0   -936.70557            0   -936.70557    139.96968 
      10 1.6766367e-25   -936.70557            0   -936.70557    139.96968 
      20 2.568014e-25   -936.70557            0   -936.70557    139.96968 
      30 2.397613e-25   -936.70557            0   -936.70557    139.96968 
      40 3.1859638e-25   -936.70557            0   -936.70557    139.96968 
      50 3.3445186e-25   -936.70557            0   -936.70557    139.96968 
      60 4.322437e-25   -936.70557            0   -936.70557    139.96968 
      70 4.8280213e-25   -936.70557            0   -936.70557    139.96968 
      80 4.5323432e-25   -936.70557            0   -936.70557    139.96968 
      90 6.2073905e-25   -936.70557            0   -936.70557    139.96968 
     100 6.6220266e-25   -936.70557            0   -936.70557    139.96968 
     110 7.5939531e-25   -936.70557            0   -936.70557    139.96968 
     120 7.8607083e-25   -936.70557            0   -936.70557    139.96968 
     130 9.5174165e-25   -936.70557            0   -936.70557    139.96968 
     140  9.04509e-25   -936.70557            0   -936.70557    139.96968 
     150 1.0720758e-24   -936.70557            0   -936.70557    139.96968 
     160 1.1804709e-24   -936.70557            0   -936.70557    139.96968 
     170 1.2113249e-24   -936.70557            0   -936.70557    139.96968 
     180 1.2940854e-24   -936.70557            0   -936.70557    139.96968 
     190 1.4564437e-24   -936.70557            0   -936.70557    139.96968 
     200 1.5896864e-24   -936.70557            0   -936.70557    139.96968 
     210 1.430063e-24   -936.70557            0   -936.70557    139.96968 
     220 1.6728457e-24   -936.70557            0   -936.70557    139.96968 
     230 1.8550829e-24   -936.70557            0   -936.70557    139.96968 
     240 1.8647598e-24   -936.70557            0   -936.70557    139.96968 
     250 1.992074e-24   -936.70557            0   -936.70557    139.96968 
     260 2.2049924e-24   -936.70557            0   -936.70557    139.96968 
     270 2.4501151e-24   -936.70557            0   -936.70557    139.96968 
     280 2.5407907e-24   -936.70557            0   -936.70557    139.96968 
     290 2.4652589e-24   -936.70557            0   -936.70557    139.96968 
     300 2.7054663e-24   -936.70557            0   -936.70557    139.96968 
     310 2.9469298e-24   -936.70557            0   -936.70557    139.96968 
     320 3.0266709e-24   -936.70557            0   -936.70557    139.96968 
     330 3.2755546e-24   -936.70557            0   -936.70557    139.96968 
     340 2.8199995e-24   -936.70557            0   -936.70557    139.96968 
     350 3.8083321e-24   -936.70557            0   -936.70557    139.96968 
     360 3.9938106e-24   -936.70557            0   -936.70557    139.96968 
     370 3.5334919e-24   -936.70557            0   -936.70557    139.96968 
     380 4.2554931e-24   -936.70557            0   -936.70557    139.96968 
     390 4.5466376e-24   -936.70557            0   -936.70557    139.96968 
     400 4.4924235e-24   -936.70557            0   -936.70557    139.96968 
     410 4.6022642e-24   -936.70557            0   -936.70557    139.96968 
     420 4.8323574e-24   -936.70557            0   -936.70557    139.96968 
     430 4.8702655e-24   -936.70557            0   -936.70557    139.96968 
     440 4.9484647e-24   -936.70557            0   -936.70557    139.96968 
     450 5.1750704e-24   -936.70557            0   -936.70557    139.96968 
     460 5.4239522e-24   -936.70557            0   -936.70557    139.96968 
     470 5.5785496e-24   -936.70557            0   -936.70557    139.96968 
     480 6.2562373e-24   -936.70557            0   -936.70557    139.96968 
     490 6.0183595e-24   -936.70557            0   -936.70557    139.96968 
     500 6.3059857e-24   -936.70557            0   -936.70557    139.96968 
     510 6.3878444e-24   -936.70557            0   -936.70557    139.96968 
     520 6.8211144e-24   -936.70557            0   -936.70557    139.96968 
     530 6.6433894e-24   -936.70557            0   -936.70557    139.96968 
     540 6.9425681e-24   -936.70557            0   -936.70557    139.96968 
     550 7.5030768e-24   -936.70557            0   -936.70557    139.96968 
     560 7.7857287e-24   -936.70557            0   -936.70557    139.96968 
     570 7.251042e-24   -936.70557            0   -936.70557    139.96968 
     580 7.8434913e-24   -936.70557            0   -936.70557    139.96968 
     590 8.262965e-24   -936.70557            0   -936.70557    139.96968 
     600 8.3806254e-24   -936.70557            0   -936.70557    139.96968 
     610 8.6741039e-24   -936.70557            0   -936.70557    139.96968 
     620 9.0977745e-24   -936.70557            0   -936.70557    139.96968 
     630 9.091224e-24   -936.70557            0   -936.70557    139.96968 
     640 9.0509723e-24   -936.70557            0   -936.70557    139.96968 
     650 9.6683671e-24   -936.70557            0   -936.70557    139.96968 
     660 9.8379997e-24   -936.70557            0   -936.70557    139.96968 
     670 9.914251e-24   -936.70557            0   -936.70557    139.96968 
     680 1.0474663e-23   -936.70557            0   -936.70557    139.96968 
     690 9.6740144e-24   -936.70557            0   -936.70557    139.96968 
     700 1.0037475e-23   -936.70557            0   -936.70557    139.96968 
     710 1.1926743e-23   -936.70557            0   -936.70557    139.96968 
     720 1.032754e-23   -936.70557            0   -936.70557    139.96968 
     730 1.1748819e-23   -936.70557            0   -936.70557    139.96968 
     740 1.2024475e-23   -936.70557            0   -936.70557    139.96968 
     750 1.2344881e-23   -936.70557            0   -936.70557    139.96968 
     760 1.1967783e-23   -936.70557            0   -936.70557    139.96968 
     770 1.2480465e-23   -936.70557            0   -936.70557    139.96968 
     780 1.4516197e-23   -936.70557            0   -936.70557    139.96968 
     790 1.3177252e-23   -936.70557            0   -936.70557    139.96968 
     800 1.2404019e-23   -936.70557            0   -936.70557    139.96968 
     810 1.3989868e-23   -936.70557            0   -936.70557    139.96968 
     820 1.4546555e-23   -936.70557            0   -936.70557    139.96968 
     830 1.3844778e-23   -936.70557            0   -936.70557    139.96968 
     840 1.4499611e-23   -936.70557            0   -936.70557    139.96968 
     850 1.3755022e-23   -936.70557            0   -936.70557    139.96968 
     860 1.4911097e-23   -936.70557            0   -936.70557    139.96968 
     870 1.5238809e-23   -936.70557            0   -936.70557    139.96968 
     880 1.5762395e-23   -936.70557            0   -936.70557    139.96968 
     890 1.4596478e-23   -936.70557            0   -936.70557    139.96968 
     900 1.5665171e-23   -936.70557            0   -936.70557    139.96968 
     910 1.6797229e-23   -936.70557            0   -936.70557    139.96968 
     920 1.6341181e-23   -936.70557            0   -936.70557    139.96968 
     930 1.6381255e-23   -936.70557            0   -936.70557    139.96968 
     940 1.7214946e-23   -936.70557            0   -936.70557    139.96968 
     950 1.6652408e-23   -936.70557            0   -936.70557    139.96968 
     960 1.8498519e-23   -936.70557            0   -936.70557    139.96968 
     970 1.7310889e-23   -936.70557            0   -936.70557    139.96968 
     980 1.6699351e-23   -936.70557            0   -936.70557    139.96968 
     990 2.0166858e-23   -936.70557            0   -936.70557    139.96968 
    1000 1.8893492e-23   -936.70557            0   -936.70557    139.96968 
    1001 1.9949356e-23   -936.70557            0   -936.70557    139.96968 
Loop time of 0.925637 on 1 procs for 1000 steps with 216 atoms

Performance: 466.706 ns/day, 0.051 hours/ns, 1080.337 timesteps/s
97.2% CPU use with 1 MPI tasks x no OpenMP threads

MPI task timing breakdown:
Section |  min time  |  avg time  |  max time  |%varavg| %total
---------------------------------------------------------------
Pair    | 0.43807    | 0.43807    | 0.43807    |   0.0 | 47.33
Neigh   | 0          | 0          | 0          |   0.0 |  0.00
Comm    | 0.0033364  | 0.0033364  | 0.0033364  |   0.0 |  0.36
Output  | 0.47544    | 0.47544    | 0.47544    |   0.0 | 51.36
Modify  | 0.006351   | 0.006351   | 0.006351   |   0.0 |  0.69
Other   |            | 0.002442   |            |       |  0.26

Nlocal:    216 ave 216 max 216 min
Histogram: 1 0 0 0 0 0 0 0 0 0
Nghost:    648 ave 648 max 648 min
Histogram: 1 0 0 0 0 0 0 0 0 0
Neighs:    0 ave 0 max 0 min
Histogram: 1 0 0 0 0 0 0 0 0 0
FullNghs:  6048 ave 6048 max 6048 min
Histogram: 1 0 0 0 0 0 0 0 0 0

Total # of neighbors = 6048
Ave neighs/atom = 28
Neighbor list builds = 0
Dangerous builds = 0
unfix		 1

print            "@@@@ (lattice parameter, rho, energy per atom):  $x $r $P"
@@@@ (lattice parameter, rho, energy per atom):  5.4307 0.0499485114284778 -4.33659987925484

clear
next             x
jump             in.Silicon
# bulk Silicon lattice
units            metal
boundary         p p p

atom_style       atomic

variable         x index 5.4305 5.4306 5.4307 5.4308 5.4309 5.4310 5.4311 5.4312 5.4313 5.4314 5.4315

lattice          diamond $x
lattice          diamond 5.4308
Lattice spacing in x,y,z = 5.4308 5.4308 5.4308
#lattice         diamond 5.431
#lattice         fcc 3.615
#lattice         bcc 3.28
#lattice         sc 2.60

region           box block 0 3 0 3 0 3
create_box       1 box
Created orthogonal box = (0 0 0) to (16.2924 16.2924 16.2924)
  1 by 1 by 1 MPI processor grid
create_atoms     1 box
Created 216 atoms

pair_style       sw
pair_coeff       * * Si.sw Si
Reading potential file Si.sw with DATE: 2007-06-11
mass             1 28
neighbor         1.0 bin
neighbor         1.0 bin
neigh_modify     every 1 delay 5 check yes

variable         P equal pe/216
variable         r equal 216/($x*3)^3
variable         r equal 216/(5.4308*3)^3
timestep         0.005
thermo           10

min_style        sd
minimize         1.0e-12 1.0e-12 1000 1000
WARNING: Resetting reneighboring criteria during minimization (../min.cpp:168)
Neighbor list info ...
  1 neighbor list requests
  update every 1 steps, delay 0 steps, check yes
  max neighbors/atom: 2000, page size: 100000
  master list distance cutoff = 4.77118
  ghost atom cutoff = 4.77118
  binsize = 2.38559 -> bins = 7 7 7
Memory usage per processor = 3.62447 Mbytes
Step Temp E_pair E_mol TotEng Press 
       0            0   -936.70559            0   -936.70559    83.924581 
       1            0   -936.70559            0   -936.70559    83.924581 
Loop time of 0.00139713 on 1 procs for 1 steps with 216 atoms

0.0% CPU use with 1 MPI tasks x no OpenMP threads

Minimization stats:
  Stopping criterion = energy tolerance
  Energy initial, next-to-last, final = 
        -936.705590611     -936.705590611     -936.705590611
  Force two-norm initial, final = 2.60852e-13 1.85375e-13
  Force max component initial, final = 2.1309e-14 2.36061e-14
  Final line search alpha, max atom move = 1 2.36061e-14
  Iterations, force evaluations = 1 2

MPI task timing breakdown:
Section |  min time  |  avg time  |  max time  |%varavg| %total
---------------------------------------------------------------
Pair    | 0.0013623  | 0.0013623  | 0.0013623  |   0.0 | 97.51
Neigh   | 0          | 0          | 0          |   0.0 |  0.00
Comm    | 9.5367e-06 | 9.5367e-06 | 9.5367e-06 |   0.0 |  0.68
Output  | 0          | 0          | 0          |   0.0 |  0.00
Modify  | 0          | 0          | 0          |   0.0 |  0.00
Other   |            | 2.527e-05  |            |       |  1.81

Nlocal:    216 ave 216 max 216 min
Histogram: 1 0 0 0 0 0 0 0 0 0
Nghost:    648 ave 648 max 648 min
Histogram: 1 0 0 0 0 0 0 0 0 0
Neighs:    0 ave 0 max 0 min
Histogram: 1 0 0 0 0 0 0 0 0 0
FullNghs:  6048 ave 6048 max 6048 min
Histogram: 1 0 0 0 0 0 0 0 0 0

Total # of neighbors = 6048
Ave neighs/atom = 28
Neighbor list builds = 0
Dangerous builds = 0

compute          3 all pe/atom
compute          4 all ke/atom
compute          5 all coord/atom 3.0
dump             1 all custom 1 dc.lammpstrj id type xs ys zs c_3 c_4 c_5

fix 		 1 all nvt temp 0.1 0.1 2 drag 0.2
run 1000
Neighbor list info ...
  2 neighbor list requests
  update every 1 steps, delay 5 steps, check yes
  max neighbors/atom: 2000, page size: 100000
  master list distance cutoff = 4.77118
  ghost atom cutoff = 4.77118
  binsize = 2.38559 -> bins = 7 7 7
Memory usage per processor = 4.26265 Mbytes
Step Temp E_pair E_mol TotEng Press 
       1            0   -936.70559            0   -936.70559    83.924581 
      10 1.7906845e-25   -936.70559            0   -936.70559    83.924581 
      20 2.5164367e-25   -936.70559            0   -936.70559    83.924581 
      30 2.675038e-25   -936.70559            0   -936.70559    83.924581 
      40 3.2776851e-25   -936.70559            0   -936.70559    83.924581 
      50 3.9330343e-25   -936.70559            0   -936.70559    83.924581 
      60 4.0281217e-25   -936.70559            0   -936.70559    83.924581 
      70 4.6237396e-25   -936.70559            0   -936.70559    83.924581 
      80 5.6888571e-25   -936.70559            0   -936.70559    83.924581 
      90 6.1002795e-25   -936.70559            0   -936.70559    83.924581 
     100 6.5974626e-25   -936.70559            0   -936.70559    83.924581 
     110 7.6372818e-25   -936.70559            0   -936.70559    83.924581 
     120 8.9603658e-25   -936.70559            0   -936.70559    83.924581 
     130 8.9916154e-25   -936.70559            0   -936.70559    83.924581 
     140 9.9047425e-25   -936.70559            0   -936.70559    83.924581 
     150 1.1488977e-24   -936.70559            0   -936.70559    83.924581 
     160 1.1559175e-24   -936.70559            0   -936.70559    83.924581 
     170 1.382083e-24   -936.70559            0   -936.70559    83.924581 
     180 1.3724856e-24   -936.70559            0   -936.70559    83.924581 
     190 1.5204824e-24   -936.70559            0   -936.70559    83.924581 
     200 1.7130053e-24   -936.70559            0   -936.70559    83.924581 
     210 1.609963e-24   -936.70559            0   -936.70559    83.924581 
     220 1.7343912e-24   -936.70559            0   -936.70559    83.924581 
     230 1.8439916e-24   -936.70559            0   -936.70559    83.924581 
     240 1.8663105e-24   -936.70559            0   -936.70559    83.924581 
     250 2.0371449e-24   -936.70559            0   -936.70559    83.924581 
     260 2.0135098e-24   -936.70559            0   -936.70559    83.924581 
     270 2.1938049e-24   -936.70559            0   -936.70559    83.924581 
     280 2.1528596e-24   -936.70559            0   -936.70559    83.924581 
     290 2.377257e-24   -936.70559            0   -936.70559    83.924581 
     300 2.5551791e-24   -936.70559            0   -936.70559    83.924581 
     310 2.4255742e-24   -936.70559            0   -936.70559    83.924581 
     320 2.8122279e-24   -936.70559            0   -936.70559    83.924581 
     330 2.9792034e-24   -936.70559            0   -936.70559    83.924581 
     340 2.7400542e-24   -936.70559            0   -936.70559    83.924581 
     350 3.2088349e-24   -936.70559            0   -936.70559    83.924581 
     360 3.2712664e-24   -936.70559            0   -936.70559    83.924581 
     370 3.4689375e-24   -936.70559            0   -936.70559    83.924581 
     380 3.5840427e-24   -936.70559            0   -936.70559    83.924581 
     390 3.4615416e-24   -936.70559            0   -936.70559    83.924581 
     400 3.9907313e-24   -936.70559            0   -936.70559    83.924581 
     410 3.8762014e-24   -936.70559            0   -936.70559    83.924581 
     420 4.0127584e-24   -936.70559            0   -936.70559    83.924581 
     430 4.0496697e-24   -936.70559            0   -936.70559    83.924581 
     440 4.3525202e-24   -936.70559            0   -936.70559    83.924581 
     450 4.6755715e-24   -936.70559            0   -936.70559    83.924581 
     460 4.9203848e-24   -936.70559            0   -936.70559    83.924581 
     470 4.5098385e-24   -936.70559            0   -936.70559    83.924581 
     480 5.4929784e-24   -936.70559            0   -936.70559    83.924581 
     490 5.1480583e-24   -936.70559            0   -936.70559    83.924581 
     500 5.5144456e-24   -936.70559            0   -936.70559    83.924581 
     510 6.0295067e-24   -936.70559            0   -936.70559    83.924581 
     520 5.9984651e-24   -936.70559            0   -936.70559    83.924581 
     530 6.106993e-24   -936.70559            0   -936.70559    83.924581 
     540 6.3380455e-24   -936.70559            0   -936.70559    83.924581 
     550 6.5918744e-24   -936.70559            0   -936.70559    83.924581 
     560 6.5441895e-24   -936.70559            0   -936.70559    83.924581 
     570 7.1957469e-24   -936.70559            0   -936.70559    83.924581 
     580 6.7101906e-24   -936.70559            0   -936.70559    83.924581 
     590 7.6275893e-24   -936.70559            0   -936.70559    83.924581 
     600  7.26498e-24   -936.70559            0   -936.70559    83.924581 
     610 7.759669e-24   -936.70559            0   -936.70559    83.924581 
     620 8.1086889e-24   -936.70559            0   -936.70559    83.924581 
     630 8.2019027e-24   -936.70559            0   -936.70559    83.924581 
     640 7.9750745e-24   -936.70559            0   -936.70559    83.924581 
     650 8.4406879e-24   -936.70559            0   -936.70559    83.924581 
     660 8.7790477e-24   -936.70559            0   -936.70559    83.924581 
     670 8.8496445e-24   -936.70559            0   -936.70559    83.924581 
     680 8.9151515e-24   -936.70559            0   -936.70559    83.924581 
     690 9.1235563e-24   -936.70559            0   -936.70559    83.924581 
     700 9.3699221e-24   -936.70559            0   -936.70559    83.924581 
     710 9.7374049e-24   -936.70559            0   -936.70559    83.924581 
     720 9.7372196e-24   -936.70559            0   -936.70559    83.924581 
     730 9.8885063e-24   -936.70559            0   -936.70559    83.924581 
     740 1.0899294e-23   -936.70559            0   -936.70559    83.924581 
     750 9.1638096e-24   -936.70559            0   -936.70559    83.924581 
     760 1.0874896e-23   -936.70559            0   -936.70559    83.924581 
     770 1.1217829e-23   -936.70559            0   -936.70559    83.924581 
     780 1.0667045e-23   -936.70559            0   -936.70559    83.924581 
     790 1.1501893e-23   -936.70559            0   -936.70559    83.924581 
     800 1.2441787e-23   -936.70559            0   -936.70559    83.924581 
     810 1.1182037e-23   -936.70559            0   -936.70559    83.924581 
     820 1.1987752e-23   -936.70559            0   -936.70559    83.924581 
     830 1.214696e-23   -936.70559            0   -936.70559    83.924581 
     840 1.2407351e-23   -936.70559            0   -936.70559    83.924581 
     850 1.2486639e-23   -936.70559            0   -936.70559    83.924581 
     860 1.2519743e-23   -936.70559            0   -936.70559    83.924581 
     870 1.4092702e-23   -936.70559            0   -936.70559    83.924581 
     880 1.315379e-23   -936.70559            0   -936.70559    83.924581 
     890 1.3996546e-23   -936.70559            0   -936.70559    83.924581 
     900 1.4038803e-23   -936.70559            0   -936.70559    83.924581 
     910 1.4309312e-23   -936.70559            0   -936.70559    83.924581 
     920 1.4669283e-23   -936.70559            0   -936.70559    83.924581 
     930 1.4648877e-23   -936.70559            0   -936.70559    83.924581 
     940 1.5338439e-23   -936.70559            0   -936.70559    83.924581 
     950 1.6551104e-23   -936.70559            0   -936.70559    83.924581 
     960 1.5187623e-23   -936.70559            0   -936.70559    83.924581 
     970 1.6780008e-23   -936.70559            0   -936.70559    83.924581 
     980 1.7301256e-23   -936.70559            0   -936.70559    83.924581 
     990 1.6990224e-23   -936.70559            0   -936.70559    83.924581 
    1000 1.7501662e-23   -936.70559            0   -936.70559    83.924581 
    1001 1.6648761e-23   -936.70559            0   -936.70559    83.924581 
Loop time of 0.945024 on 1 procs for 1000 steps with 216 atoms

Performance: 457.131 ns/day, 0.053 hours/ns, 1058.174 timesteps/s
96.9% CPU use with 1 MPI tasks x no OpenMP threads

MPI task timing breakdown:
Section |  min time  |  avg time  |  max time  |%varavg| %total
---------------------------------------------------------------
Pair    | 0.44573    | 0.44573    | 0.44573    |   0.0 | 47.17
Neigh   | 0          | 0          | 0          |   0.0 |  0.00
Comm    | 0.0033474  | 0.0033474  | 0.0033474  |   0.0 |  0.35
Output  | 0.48703    | 0.48703    | 0.48703    |   0.0 | 51.54
Modify  | 0.0063939  | 0.0063939  | 0.0063939  |   0.0 |  0.68
Other   |            | 0.002525   |            |       |  0.27

Nlocal:    216 ave 216 max 216 min
Histogram: 1 0 0 0 0 0 0 0 0 0
Nghost:    648 ave 648 max 648 min
Histogram: 1 0 0 0 0 0 0 0 0 0
Neighs:    0 ave 0 max 0 min
Histogram: 1 0 0 0 0 0 0 0 0 0
FullNghs:  6048 ave 6048 max 6048 min
Histogram: 1 0 0 0 0 0 0 0 0 0

Total # of neighbors = 6048
Ave neighs/atom = 28
Neighbor list builds = 0
Dangerous builds = 0
unfix		 1

print            "@@@@ (lattice parameter, rho, energy per atom):  $x $r $P"
@@@@ (lattice parameter, rho, energy per atom):  5.4308 0.0499457522995258 -4.3365999565317

clear
next             x
jump             in.Silicon
# bulk Silicon lattice
units            metal
boundary         p p p

atom_style       atomic

variable         x index 5.4305 5.4306 5.4307 5.4308 5.4309 5.4310 5.4311 5.4312 5.4313 5.4314 5.4315

lattice          diamond $x
lattice          diamond 5.4309
Lattice spacing in x,y,z = 5.4309 5.4309 5.4309
#lattice         diamond 5.431
#lattice         fcc 3.615
#lattice         bcc 3.28
#lattice         sc 2.60

region           box block 0 3 0 3 0 3
create_box       1 box
Created orthogonal box = (0 0 0) to (16.2927 16.2927 16.2927)
  1 by 1 by 1 MPI processor grid
create_atoms     1 box
Created 216 atoms

pair_style       sw
pair_coeff       * * Si.sw Si
Reading potential file Si.sw with DATE: 2007-06-11
mass             1 28
neighbor         1.0 bin
neighbor         1.0 bin
neigh_modify     every 1 delay 5 check yes

variable         P equal pe/216
variable         r equal 216/($x*3)^3
variable         r equal 216/(5.4309*3)^3
timestep         0.005
thermo           10

min_style        sd
minimize         1.0e-12 1.0e-12 1000 1000
WARNING: Resetting reneighboring criteria during minimization (../min.cpp:168)
Neighbor list info ...
  1 neighbor list requests
  update every 1 steps, delay 0 steps, check yes
  max neighbors/atom: 2000, page size: 100000
  master list distance cutoff = 4.77118
  ghost atom cutoff = 4.77118
  binsize = 2.38559 -> bins = 7 7 7
Memory usage per processor = 3.62447 Mbytes
Step Temp E_pair E_mol TotEng Press 
       0            0    -936.7056            0    -936.7056    27.889573 
       1            0    -936.7056            0    -936.7056    27.889573 
Loop time of 0.00136876 on 1 procs for 1 steps with 216 atoms

292.2% CPU use with 1 MPI tasks x no OpenMP threads

Minimization stats:
  Stopping criterion = energy tolerance
  Energy initial, next-to-last, final = 
        -936.705598947     -936.705598947     -936.705598947
  Force two-norm initial, final = 1.92139e-13 1.64604e-13
  Force max component initial, final = 2.09234e-14 2.02928e-14
  Final line search alpha, max atom move = 1 2.02928e-14
  Iterations, force evaluations = 1 2

MPI task timing breakdown:
Section |  min time  |  avg time  |  max time  |%varavg| %total
---------------------------------------------------------------
Pair    | 0.0013354  | 0.0013354  | 0.0013354  |   0.0 | 97.56
Neigh   | 0          | 0          | 0          |   0.0 |  0.00
Comm    | 9.5367e-06 | 9.5367e-06 | 9.5367e-06 |   0.0 |  0.70
Output  | 0          | 0          | 0          |   0.0 |  0.00
Modify  | 0          | 0          | 0          |   0.0 |  0.00
Other   |            | 2.384e-05  |            |       |  1.74

Nlocal:    216 ave 216 max 216 min
Histogram: 1 0 0 0 0 0 0 0 0 0
Nghost:    648 ave 648 max 648 min
Histogram: 1 0 0 0 0 0 0 0 0 0
Neighs:    0 ave 0 max 0 min
Histogram: 1 0 0 0 0 0 0 0 0 0
FullNghs:  6048 ave 6048 max 6048 min
Histogram: 1 0 0 0 0 0 0 0 0 0

Total # of neighbors = 6048
Ave neighs/atom = 28
Neighbor list builds = 0
Dangerous builds = 0

compute          3 all pe/atom
compute          4 all ke/atom
compute          5 all coord/atom 3.0
dump             1 all custom 1 dc.lammpstrj id type xs ys zs c_3 c_4 c_5

fix 		 1 all nvt temp 0.1 0.1 2 drag 0.2
run 1000
Neighbor list info ...
  2 neighbor list requests
  update every 1 steps, delay 5 steps, check yes
  max neighbors/atom: 2000, page size: 100000
  master list distance cutoff = 4.77118
  ghost atom cutoff = 4.77118
  binsize = 2.38559 -> bins = 7 7 7
Memory usage per processor = 4.26265 Mbytes
Step Temp E_pair E_mol TotEng Press 
       1            0    -936.7056            0    -936.7056    27.889573 
      10 1.1046943e-25    -936.7056            0    -936.7056    27.889573 
      20 1.8183783e-25    -936.7056            0    -936.7056    27.889573 
      30 2.5502299e-25    -936.7056            0    -936.7056    27.889573 
      40 2.7141402e-25    -936.7056            0    -936.7056    27.889573 
      50 3.4513073e-25    -936.7056            0    -936.7056    27.889573 
      60 3.9702077e-25    -936.7056            0    -936.7056    27.889573 
      70 4.7061938e-25    -936.7056            0    -936.7056    27.889573 
      80 5.0757711e-25    -936.7056            0    -936.7056    27.889573 
      90 5.7151662e-25    -936.7056            0    -936.7056    27.889573 
     100 6.1923575e-25    -936.7056            0    -936.7056    27.889573 
     110 7.4061564e-25    -936.7056            0    -936.7056    27.889573 
     120 8.5633448e-25    -936.7056            0    -936.7056    27.889573 
     130 8.2159046e-25    -936.7056            0    -936.7056    27.889573 
     140 9.7600419e-25    -936.7056            0    -936.7056    27.889573 
     150 1.1616002e-24    -936.7056            0    -936.7056    27.889573 
     160 1.0732669e-24    -936.7056            0    -936.7056    27.889573 
     170 1.3312052e-24    -936.7056            0    -936.7056    27.889573 
     180 1.3947927e-24    -936.7056            0    -936.7056    27.889573 
     190 1.3115414e-24    -936.7056            0    -936.7056    27.889573 
     200 1.531078e-24    -936.7056            0    -936.7056    27.889573 
     210 1.5972314e-24    -936.7056            0    -936.7056    27.889573 
     220 1.663743e-24    -936.7056            0    -936.7056    27.889573 
     230 1.7355978e-24    -936.7056            0    -936.7056    27.889573 
     240 1.9239195e-24    -936.7056            0    -936.7056    27.889573 
     250 1.8919201e-24    -936.7056            0    -936.7056    27.889573 
     260 2.2625597e-24    -936.7056            0    -936.7056    27.889573 
     270 2.4449973e-24    -936.7056            0    -936.7056    27.889573 
     280 2.1801265e-24    -936.7056            0    -936.7056    27.889573 
     290 2.4825406e-24    -936.7056            0    -936.7056    27.889573 
     300 2.7863487e-24    -936.7056            0    -936.7056    27.889573 
     310 2.608117e-24    -936.7056            0    -936.7056    27.889573 
     320 2.8373375e-24    -936.7056            0    -936.7056    27.889573 
     330 3.0249698e-24    -936.7056            0    -936.7056    27.889573 
     340 2.9498247e-24    -936.7056            0    -936.7056    27.889573 
     350 3.4523758e-24    -936.7056            0    -936.7056    27.889573 
     360 3.2741527e-24    -936.7056            0    -936.7056    27.889573 
     370 3.7764539e-24    -936.7056            0    -936.7056    27.889573 
     380 3.9519926e-24    -936.7056            0    -936.7056    27.889573 
     390 3.8828151e-24    -936.7056            0    -936.7056    27.889573 
     400 4.5644309e-24    -936.7056            0    -936.7056    27.889573 
     410 4.1999947e-24    -936.7056            0    -936.7056    27.889573 
     420 4.5440405e-24    -936.7056            0    -936.7056    27.889573 
     430 5.3633554e-24    -936.7056            0    -936.7056    27.889573 
     440 4.6578175e-24    -936.7056            0    -936.7056    27.889573 
     450 5.4188843e-24    -936.7056            0    -936.7056    27.889573 
     460 5.7963256e-24    -936.7056            0    -936.7056    27.889573 
     470 5.6467704e-24    -936.7056            0    -936.7056    27.889573 
     480 5.9479941e-24    -936.7056            0    -936.7056    27.889573 
     490 6.3868865e-24    -936.7056            0    -936.7056    27.889573 
     500 5.9605605e-24    -936.7056            0    -936.7056    27.889573 
     510 6.3241265e-24    -936.7056            0    -936.7056    27.889573 
     520 6.9266687e-24    -936.7056            0    -936.7056    27.889573 
     530 7.1139365e-24    -936.7056            0    -936.7056    27.889573 
     540 6.8298742e-24    -936.7056            0    -936.7056    27.889573 
     550 7.2279123e-24    -936.7056            0    -936.7056    27.889573 
     560 8.561137e-24    -936.7056            0    -936.7056    27.889573 
     570 7.2254307e-24    -936.7056            0    -936.7056    27.889573 
     580 8.6353664e-24    -936.7056            0    -936.7056    27.889573 
     590 7.6959849e-24    -936.7056            0    -936.7056    27.889573 
     600 8.3732257e-24    -936.7056            0    -936.7056    27.889573 
     610 9.5672099e-24    -936.7056            0    -936.7056    27.889573 
     620 7.6948357e-24    -936.7056            0    -936.7056    27.889573 
     630 9.3615476e-24    -936.7056            0    -936.7056    27.889573 
     640 1.0159447e-23    -936.7056            0    -936.7056    27.889573 
     650 9.2500239e-24    -936.7056            0    -936.7056    27.889573 
     660 9.3252671e-24    -936.7056            0    -936.7056    27.889573 
     670 1.0348655e-23    -936.7056            0    -936.7056    27.889573 
     680 1.0879327e-23    -936.7056            0    -936.7056    27.889573 
     690 1.0137062e-23    -936.7056            0    -936.7056    27.889573 
     700 1.0779859e-23    -936.7056            0    -936.7056    27.889573 
     710 1.1788884e-23    -936.7056            0    -936.7056    27.889573 
     720 1.1563544e-23    -936.7056            0    -936.7056    27.889573 
     730 1.1766402e-23    -936.7056            0    -936.7056    27.889573 
     740 1.1908846e-23    -936.7056            0    -936.7056    27.889573 
     750 1.2699098e-23    -936.7056            0    -936.7056    27.889573 
     760 1.2265571e-23    -936.7056            0    -936.7056    27.889573 
     770 1.2541374e-23    -936.7056            0    -936.7056    27.889573 
     780 1.2990843e-23    -936.7056            0    -936.7056    27.889573 
     790 1.3732626e-23    -936.7056            0    -936.7056    27.889573 
     800 1.2397665e-23    -936.7056            0    -936.7056    27.889573 
     810 1.5041864e-23    -936.7056            0    -936.7056    27.889573 
     820 1.4141579e-23    -936.7056            0    -936.7056    27.889573 
     830 1.3672365e-23    -936.7056            0    -936.7056    27.889573 
     840 1.5692001e-23    -936.7056            0    -936.7056    27.889573 
     850 1.369894e-23    -936.7056            0    -936.7056    27.889573 
     860 1.5955804e-23    -936.7056            0    -936.7056    27.889573 
     870 1.5218755e-23    -936.7056            0    -936.7056    27.889573 
     880 1.4281486e-23    -936.7056            0    -936.7056    27.889573 
     890 1.7101497e-23    -936.7056            0    -936.7056    27.889573 
     900 1.6339868e-23    -936.7056            0    -936.7056    27.889573 
     910 1.566126e-23    -936.7056            0    -936.7056    27.889573 
     920 1.6270257e-23    -936.7056            0    -936.7056    27.889573 
     930 1.7294388e-23    -936.7056            0    -936.7056    27.889573 
     940 1.801796e-23    -936.7056            0    -936.7056    27.889573 
     950 1.6585636e-23    -936.7056            0    -936.7056    27.889573 
     960 1.7608877e-23    -936.7056            0    -936.7056    27.889573 
     970 1.8341567e-23    -936.7056            0    -936.7056    27.889573 
     980 1.8596654e-23    -936.7056            0    -936.7056    27.889573 
     990 1.8204677e-23    -936.7056            0    -936.7056    27.889573 
    1000 1.9045901e-23    -936.7056            0    -936.7056    27.889573 
    1001 1.8891126e-23    -936.7056            0    -936.7056    27.889573 
Loop time of 0.92976 on 1 procs for 1000 steps with 216 atoms

Performance: 464.636 ns/day, 0.052 hours/ns, 1075.546 timesteps/s
99.4% CPU use with 1 MPI tasks x no OpenMP threads

MPI task timing breakdown:
Section |  min time  |  avg time  |  max time  |%varavg| %total
---------------------------------------------------------------
Pair    | 0.4391     | 0.4391     | 0.4391     |   0.0 | 47.23
Neigh   | 0          | 0          | 0          |   0.0 |  0.00
Comm    | 0.0033431  | 0.0033431  | 0.0033431  |   0.0 |  0.36
Output  | 0.47851    | 0.47851    | 0.47851    |   0.0 | 51.47
Modify  | 0.0063899  | 0.0063899  | 0.0063899  |   0.0 |  0.69
Other   |            | 0.002418   |            |       |  0.26

Nlocal:    216 ave 216 max 216 min
Histogram: 1 0 0 0 0 0 0 0 0 0
Nghost:    648 ave 648 max 648 min
Histogram: 1 0 0 0 0 0 0 0 0 0
Neighs:    0 ave 0 max 0 min
Histogram: 1 0 0 0 0 0 0 0 0 0
FullNghs:  6048 ave 6048 max 6048 min
Histogram: 1 0 0 0 0 0 0 0 0 0

Total # of neighbors = 6048
Ave neighs/atom = 28
Neighbor list builds = 0
Dangerous builds = 0
unfix		 1

print            "@@@@ (lattice parameter, rho, energy per atom):  $x $r $P"
@@@@ (lattice parameter, rho, energy per atom):  5.4309 0.0499429933737872 -4.33659999512526

clear
next             x
jump             in.Silicon
# bulk Silicon lattice
units            metal
boundary         p p p

atom_style       atomic

variable         x index 5.4305 5.4306 5.4307 5.4308 5.4309 5.4310 5.4311 5.4312 5.4313 5.4314 5.4315

lattice          diamond $x
lattice          diamond 5.4310
Lattice spacing in x,y,z = 5.431 5.431 5.431
#lattice         diamond 5.431
#lattice         fcc 3.615
#lattice         bcc 3.28
#lattice         sc 2.60

region           box block 0 3 0 3 0 3
create_box       1 box
Created orthogonal box = (0 0 0) to (16.293 16.293 16.293)
  1 by 1 by 1 MPI processor grid
create_atoms     1 box
Created 216 atoms

pair_style       sw
pair_coeff       * * Si.sw Si
Reading potential file Si.sw with DATE: 2007-06-11
mass             1 28
neighbor         1.0 bin
neighbor         1.0 bin
neigh_modify     every 1 delay 5 check yes

variable         P equal pe/216
variable         r equal 216/($x*3)^3
variable         r equal 216/(5.4310*3)^3
timestep         0.005
thermo           10

min_style        sd
minimize         1.0e-12 1.0e-12 1000 1000
WARNING: Resetting reneighboring criteria during minimization (../min.cpp:168)
Neighbor list info ...
  1 neighbor list requests
  update every 1 steps, delay 0 steps, check yes
  max neighbors/atom: 2000, page size: 100000
  master list distance cutoff = 4.77118
  ghost atom cutoff = 4.77118
  binsize = 2.38559 -> bins = 7 7 7
Memory usage per processor = 3.62447 Mbytes
Step Temp E_pair E_mol TotEng Press 
       0            0    -936.7056            0    -936.7056   -28.135347 
       1            0    -936.7056            0    -936.7056   -28.135347 
Loop time of 0.00138497 on 1 procs for 1 steps with 216 atoms

0.0% CPU use with 1 MPI tasks x no OpenMP threads

Minimization stats:
  Stopping criterion = energy tolerance
  Energy initial, next-to-last, final = 
        -936.705598929     -936.705598929     -936.705598929
  Force two-norm initial, final = 2.47052e-13 2.51356e-13
  Force max component initial, final = 1.83614e-14 2.14713e-14
  Final line search alpha, max atom move = 1 2.14713e-14
  Iterations, force evaluations = 1 2

MPI task timing breakdown:
Section |  min time  |  avg time  |  max time  |%varavg| %total
---------------------------------------------------------------
Pair    | 0.0013506  | 0.0013506  | 0.0013506  |   0.0 | 97.52
Neigh   | 0          | 0          | 0          |   0.0 |  0.00
Comm    | 9.7752e-06 | 9.7752e-06 | 9.7752e-06 |   0.0 |  0.71
Output  | 0          | 0          | 0          |   0.0 |  0.00
Modify  | 0          | 0          | 0          |   0.0 |  0.00
Other   |            | 2.456e-05  |            |       |  1.77

Nlocal:    216 ave 216 max 216 min
Histogram: 1 0 0 0 0 0 0 0 0 0
Nghost:    648 ave 648 max 648 min
Histogram: 1 0 0 0 0 0 0 0 0 0
Neighs:    0 ave 0 max 0 min
Histogram: 1 0 0 0 0 0 0 0 0 0
FullNghs:  6048 ave 6048 max 6048 min
Histogram: 1 0 0 0 0 0 0 0 0 0

Total # of neighbors = 6048
Ave neighs/atom = 28
Neighbor list builds = 0
Dangerous builds = 0

compute          3 all pe/atom
compute          4 all ke/atom
compute          5 all coord/atom 3.0
dump             1 all custom 1 dc.lammpstrj id type xs ys zs c_3 c_4 c_5

fix 		 1 all nvt temp 0.1 0.1 2 drag 0.2
run 1000
Neighbor list info ...
  2 neighbor list requests
  update every 1 steps, delay 5 steps, check yes
  max neighbors/atom: 2000, page size: 100000
  master list distance cutoff = 4.77118
  ghost atom cutoff = 4.77118
  binsize = 2.38559 -> bins = 7 7 7
Memory usage per processor = 4.26265 Mbytes
Step Temp E_pair E_mol TotEng Press 
       1            0    -936.7056            0    -936.7056   -28.135347 
      10 1.4874944e-25    -936.7056            0    -936.7056   -28.135347 
      20 2.752539e-25    -936.7056            0    -936.7056   -28.135347 
      30 2.8769423e-25    -936.7056            0    -936.7056   -28.135347 
      40 3.197186e-25    -936.7056            0    -936.7056   -28.135347 
      50 4.3163316e-25    -936.7056            0    -936.7056   -28.135347 
      60 4.8330392e-25    -936.7056            0    -936.7056   -28.135347 
      70 4.7846522e-25    -936.7056            0    -936.7056   -28.135347 
      80 6.6315049e-25    -936.7056            0    -936.7056   -28.135347 
      90 6.041532e-25    -936.7056            0    -936.7056   -28.135347 
     100 6.7468203e-25    -936.7056            0    -936.7056   -28.135347 
     110 8.1505867e-25    -936.7056            0    -936.7056   -28.135347 
     120 8.8421842e-25    -936.7056            0    -936.7056   -28.135347 
     130 8.6127968e-25    -936.7056            0    -936.7056   -28.135347 
     140 1.1077194e-24    -936.7056            0    -936.7056   -28.135347 
     150 1.181624e-24    -936.7056            0    -936.7056   -28.135347 
     160 1.1644849e-24    -936.7056            0    -936.7056   -28.135347 
     170 1.3588472e-24    -936.7056            0    -936.7056   -28.135347 
     180 1.4119826e-24    -936.7056            0    -936.7056   -28.135347 
     190 1.5070628e-24    -936.7056            0    -936.7056   -28.135347 
     200 1.5107065e-24    -936.7056            0    -936.7056   -28.135347 
     210 1.6970162e-24    -936.7056            0    -936.7056   -28.135347 
     220 1.8803859e-24    -936.7056            0    -936.7056   -28.135347 
     230 1.9101168e-24    -936.7056            0    -936.7056   -28.135347 
     240 1.920968e-24    -936.7056            0    -936.7056   -28.135347 
     250 2.3000209e-24    -936.7056            0    -936.7056   -28.135347 
     260  2.22524e-24    -936.7056            0    -936.7056   -28.135347 
     270 2.5342584e-24    -936.7056            0    -936.7056   -28.135347 
     280 2.6610037e-24    -936.7056            0    -936.7056   -28.135347 
     290 2.7853391e-24    -936.7056            0    -936.7056   -28.135347 
     300 3.0059082e-24    -936.7056            0    -936.7056   -28.135347 
     310 2.9936378e-24    -936.7056            0    -936.7056   -28.135347 
     320 3.2817069e-24    -936.7056            0    -936.7056   -28.135347 
     330 3.4623554e-24    -936.7056            0    -936.7056   -28.135347 
     340 3.2696989e-24    -936.7056            0    -936.7056   -28.135347 
     350 3.5788639e-24    -936.7056            0    -936.7056   -28.135347 
     360 4.2031337e-24    -936.7056            0    -936.7056   -28.135347 
     370 3.9671011e-24    -936.7056            0    -936.7056   -28.135347 
     380 3.9569962e-24    -936.7056            0    -936.7056   -28.135347 
     390 4.5622235e-24    -936.7056            0    -936.7056   -28.135347 
     400  4.57286e-24    -936.7056            0    -936.7056   -28.135347 
     410 4.6208141e-24    -936.7056            0    -936.7056   -28.135347 
     420 4.3535023e-24    -936.7056            0    -936.7056   -28.135347 
     430 5.1218002e-24    -936.7056            0    -936.7056   -28.135347 
     440 5.2845941e-24    -936.7056            0    -936.7056   -28.135347 
     450 5.074087e-24    -936.7056            0    -936.7056   -28.135347 
     460 5.3087327e-24    -936.7056            0    -936.7056   -28.135347 
     470 5.5657034e-24    -936.7056            0    -936.7056   -28.135347 
     480 6.1007753e-24    -936.7056            0    -936.7056   -28.135347 
     490 6.3884467e-24    -936.7056            0    -936.7056   -28.135347 
     500 5.7848733e-24    -936.7056            0    -936.7056   -28.135347 
     510 5.8475807e-24    -936.7056            0    -936.7056   -28.135347 
     520 6.8371718e-24    -936.7056            0    -936.7056   -28.135347 
     530 6.6960374e-24    -936.7056            0    -936.7056   -28.135347 
     540 6.5140356e-24    -936.7056            0    -936.7056   -28.135347 
     550 7.035338e-24    -936.7056            0    -936.7056   -28.135347 
     560 7.133594e-24    -936.7056            0    -936.7056   -28.135347 
     570 7.9090179e-24    -936.7056            0    -936.7056   -28.135347 
     580 7.7282895e-24    -936.7056            0    -936.7056   -28.135347 
     590 7.8697419e-24    -936.7056            0    -936.7056   -28.135347 
     600 8.1784586e-24    -936.7056            0    -936.7056   -28.135347 
     610 8.7996218e-24    -936.7056            0    -936.7056   -28.135347 
     620 8.1777778e-24    -936.7056            0    -936.7056   -28.135347 
     630 8.4388203e-24    -936.7056            0    -936.7056   -28.135347 
     640 8.9613948e-24    -936.7056            0    -936.7056   -28.135347 
     650 9.2782447e-24    -936.7056            0    -936.7056   -28.135347 
     660 8.8803252e-24    -936.7056            0    -936.7056   -28.135347 
     670 9.4797267e-24    -936.7056            0    -936.7056   -28.135347 
     680 9.5393294e-24    -936.7056            0    -936.7056   -28.135347 
     690 9.4357576e-24    -936.7056            0    -936.7056   -28.135347 
     700 1.034164e-23    -936.7056            0    -936.7056   -28.135347 
     710 9.6147285e-24    -936.7056            0    -936.7056   -28.135347 
     720 1.0223598e-23    -936.7056            0    -936.7056   -28.135347 
     730 1.0591577e-23    -936.7056            0    -936.7056   -28.135347 
     740 1.1195284e-23    -936.7056            0    -936.7056   -28.135347 
     750 1.0804048e-23    -936.7056            0    -936.7056   -28.135347 
     760 1.0951588e-23    -936.7056            0    -936.7056   -28.135347 
     770 1.2449739e-23    -936.7056            0    -936.7056   -28.135347 
     780 1.1950698e-23    -936.7056            0    -936.7056   -28.135347 
     790 1.1340484e-23    -936.7056            0    -936.7056   -28.135347 
     800 1.2745732e-23    -936.7056            0    -936.7056   -28.135347 
     810 1.2554975e-23    -936.7056            0    -936.7056   -28.135347 
     820 1.2359574e-23    -936.7056            0    -936.7056   -28.135347 
     830 1.3841632e-23    -936.7056            0    -936.7056   -28.135347 
     840 1.2863902e-23    -936.7056            0    -936.7056   -28.135347 
     850 1.3296445e-23    -936.7056            0    -936.7056   -28.135347 
     860 1.4591276e-23    -936.7056            0    -936.7056   -28.135347 
     870  1.40279e-23    -936.7056            0    -936.7056   -28.135347 
     880 1.4543559e-23    -936.7056            0    -936.7056   -28.135347 
     890 1.5268875e-23    -936.7056            0    -936.7056   -28.135347 
     900 1.4492254e-23    -936.7056            0    -936.7056   -28.135347 
     910 1.5453184e-23    -936.7056            0    -936.7056   -28.135347 
     920 1.5372578e-23    -936.7056            0    -936.7056   -28.135347 
     930 1.6810883e-23    -936.7056            0    -936.7056   -28.135347 
     940 1.5388237e-23    -936.7056            0    -936.7056   -28.135347 
     950 1.5874554e-23    -936.7056            0    -936.7056   -28.135347 
     960 1.783394e-23    -936.7056            0    -936.7056   -28.135347 
     970 1.5534142e-23    -936.7056            0    -936.7056   -28.135347 
     980 1.6625952e-23    -936.7056            0    -936.7056   -28.135347 
     990 1.8271603e-23    -936.7056            0    -936.7056   -28.135347 
    1000 1.6805674e-23    -936.7056            0    -936.7056   -28.135347 
    1001 1.7586018e-23    -936.7056            0    -936.7056   -28.135347 
Loop time of 0.943636 on 1 procs for 1000 steps with 216 atoms

Performance: 457.804 ns/day, 0.052 hours/ns, 1059.731 timesteps/s
98.3% CPU use with 1 MPI tasks x no OpenMP threads

MPI task timing breakdown:
Section |  min time  |  avg time  |  max time  |%varavg| %total
---------------------------------------------------------------
Pair    | 0.44676    | 0.44676    | 0.44676    |   0.0 | 47.34
Neigh   | 0          | 0          | 0          |   0.0 |  0.00
Comm    | 0.0033433  | 0.0033433  | 0.0033433  |   0.0 |  0.35
Output  | 0.48468    | 0.48468    | 0.48468    |   0.0 | 51.36
Modify  | 0.0064058  | 0.0064058  | 0.0064058  |   0.0 |  0.68
Other   |            | 0.00244    |            |       |  0.26

Nlocal:    216 ave 216 max 216 min
Histogram: 1 0 0 0 0 0 0 0 0 0
Nghost:    648 ave 648 max 648 min
Histogram: 1 0 0 0 0 0 0 0 0 0
Neighs:    0 ave 0 max 0 min
Histogram: 1 0 0 0 0 0 0 0 0 0
FullNghs:  6048 ave 6048 max 6048 min
Histogram: 1 0 0 0 0 0 0 0 0 0

Total # of neighbors = 6048
Ave neighs/atom = 28
Neighbor list builds = 0
Dangerous builds = 0
unfix		 1

print            "@@@@ (lattice parameter, rho, energy per atom):  $x $r $P"
@@@@ (lattice parameter, rho, energy per atom):  5.4310 0.0499402346512432 -4.33659999503975

clear
next             x
jump             in.Silicon
# bulk Silicon lattice
units            metal
boundary         p p p

atom_style       atomic

variable         x index 5.4305 5.4306 5.4307 5.4308 5.4309 5.4310 5.4311 5.4312 5.4313 5.4314 5.4315

lattice          diamond $x
lattice          diamond 5.4311
Lattice spacing in x,y,z = 5.4311 5.4311 5.4311
#lattice         diamond 5.431
#lattice         fcc 3.615
#lattice         bcc 3.28
#lattice         sc 2.60

region           box block 0 3 0 3 0 3
create_box       1 box
Created orthogonal box = (0 0 0) to (16.2933 16.2933 16.2933)
  1 by 1 by 1 MPI processor grid
create_atoms     1 box
Created 216 atoms

pair_style       sw
pair_coeff       * * Si.sw Si
Reading potential file Si.sw with DATE: 2007-06-11
mass             1 28
neighbor         1.0 bin
neighbor         1.0 bin
neigh_modify     every 1 delay 5 check yes

variable         P equal pe/216
variable         r equal 216/($x*3)^3
variable         r equal 216/(5.4311*3)^3
timestep         0.005
thermo           10

min_style        sd
minimize         1.0e-12 1.0e-12 1000 1000
WARNING: Resetting reneighboring criteria during minimization (../min.cpp:168)
Neighbor list info ...
  1 neighbor list requests
  update every 1 steps, delay 0 steps, check yes
  max neighbors/atom: 2000, page size: 100000
  master list distance cutoff = 4.77118
  ghost atom cutoff = 4.77118
  binsize = 2.38559 -> bins = 7 7 7
Memory usage per processor = 3.62447 Mbytes
Step Temp E_pair E_mol TotEng Press 
       0            0   -936.70559            0   -936.70559   -84.150181 
       1            0   -936.70559            0   -936.70559   -84.150181 
Loop time of 0.0013876 on 1 procs for 1 steps with 216 atoms

0.0% CPU use with 1 MPI tasks x no OpenMP threads

Minimization stats:
  Stopping criterion = energy tolerance
  Energy initial, next-to-last, final = 
        -936.705590556     -936.705590556     -936.705590556
  Force two-norm initial, final = 1.91373e-13 1.68594e-13
  Force max component initial, final = 2.06561e-14 2.06872e-14
  Final line search alpha, max atom move = 1 2.06872e-14
  Iterations, force evaluations = 1 2

MPI task timing breakdown:
Section |  min time  |  avg time  |  max time  |%varavg| %total
---------------------------------------------------------------
Pair    | 0.0013363  | 0.0013363  | 0.0013363  |   0.0 | 96.31
Neigh   | 0          | 0          | 0          |   0.0 |  0.00
Comm    | 9.7752e-06 | 9.7752e-06 | 9.7752e-06 |   0.0 |  0.70
Output  | 0          | 0          | 0          |   0.0 |  0.00
Modify  | 0          | 0          | 0          |   0.0 |  0.00
Other   |            | 4.148e-05  |            |       |  2.99

Nlocal:    216 ave 216 max 216 min
Histogram: 1 0 0 0 0 0 0 0 0 0
Nghost:    648 ave 648 max 648 min
Histogram: 1 0 0 0 0 0 0 0 0 0
Neighs:    0 ave 0 max 0 min
Histogram: 1 0 0 0 0 0 0 0 0 0
FullNghs:  6048 ave 6048 max 6048 min
Histogram: 1 0 0 0 0 0 0 0 0 0

Total # of neighbors = 6048
Ave neighs/atom = 28
Neighbor list builds = 0
Dangerous builds = 0

compute          3 all pe/atom
compute          4 all ke/atom
compute          5 all coord/atom 3.0
dump             1 all custom 1 dc.lammpstrj id type xs ys zs c_3 c_4 c_5

fix 		 1 all nvt temp 0.1 0.1 2 drag 0.2
run 1000
Neighbor list info ...
  2 neighbor list requests
  update every 1 steps, delay 5 steps, check yes
  max neighbors/atom: 2000, page size: 100000
  master list distance cutoff = 4.77118
  ghost atom cutoff = 4.77118
  binsize = 2.38559 -> bins = 7 7 7
Memory usage per processor = 4.26265 Mbytes
Step Temp E_pair E_mol TotEng Press 
       1            0   -936.70559            0   -936.70559   -84.150181 
      10 1.1218025e-25   -936.70559            0   -936.70559   -84.150181 
      20 1.8621539e-25   -936.70559            0   -936.70559   -84.150181 
      30 2.4781953e-25   -936.70559            0   -936.70559   -84.150181 
      40 2.6726114e-25   -936.70559            0   -936.70559   -84.150181 
      50 3.4276778e-25   -936.70559            0   -936.70559   -84.150181 
      60 3.7167717e-25   -936.70559            0   -936.70559   -84.150181 
      70 4.5384528e-25   -936.70559            0   -936.70559   -84.150181 
      80 4.932883e-25   -936.70559            0   -936.70559   -84.150181 
      90 5.8292771e-25   -936.70559            0   -936.70559   -84.150181 
[...]
     230 1.7979155e-24   -936.70552            0   -936.70552   -252.13418 
     240 1.8552628e-24   -936.70552            0   -936.70552   -252.13418 
     250 1.9285103e-24   -936.70552            0   -936.70552   -252.13418 
     260 2.099781e-24   -936.70552            0   -936.70552   -252.13418 
     270 2.3032073e-24   -936.70552            0   -936.70552   -252.13418 
     280 2.4750976e-24   -936.70552            0   -936.70552   -252.13418 
     290 2.6769302e-24   -936.70552            0   -936.70552   -252.13418 
     300 2.840183e-24   -936.70552            0   -936.70552   -252.13418 
     310 2.9467268e-24   -936.70552            0   -936.70552   -252.13418 
     320 2.9329524e-24   -936.70552            0   -936.70552   -252.13418 
     330 3.0501002e-24   -936.70552            0   -936.70552   -252.13418 
     340 3.1606615e-24   -936.70552            0   -936.70552   -252.13418 
     350 3.2911297e-24   -936.70552            0   -936.70552   -252.13418 
     360 3.4153856e-24   -936.70552            0   -936.70552   -252.13418 
     370 4.033286e-24   -936.70552            0   -936.70552   -252.13418 
     380 3.6132188e-24   -936.70552            0   -936.70552   -252.13418 
     390 4.2570124e-24   -936.70552            0   -936.70552   -252.13418 
     400 4.4618086e-24   -936.70552            0   -936.70552   -252.13418 
     410 4.3919243e-24   -936.70552            0   -936.70552   -252.13418 
     420 4.2978115e-24   -936.70552            0   -936.70552   -252.13418 
     430 4.701915e-24   -936.70552            0   -936.70552   -252.13418 
     440 5.0658823e-24   -936.70552            0   -936.70552   -252.13418 
     450 5.2129184e-24   -936.70552            0   -936.70552   -252.13418 
     460 5.4333605e-24   -936.70552            0   -936.70552   -252.13418 
     470 5.7148822e-24   -936.70552            0   -936.70552   -252.13418 
     480  6.45206e-24   -936.70552            0   -936.70552   -252.13418 
     490 6.2031472e-24   -936.70552            0   -936.70552   -252.13418 
     500 6.0480058e-24   -936.70552            0   -936.70552   -252.13418 
     510 6.6095512e-24   -936.70552            0   -936.70552   -252.13418 
     520 6.4114911e-24   -936.70552            0   -936.70552   -252.13418 
     530 6.7886696e-24   -936.70552            0   -936.70552   -252.13418 
     540 6.6988613e-24   -936.70552            0   -936.70552   -252.13418 
     550 6.7854018e-24   -936.70552            0   -936.70552   -252.13418 
     560 7.7517147e-24   -936.70552            0   -936.70552   -252.13418 
     570 6.9629904e-24   -936.70552            0   -936.70552   -252.13418 
     580 7.6264104e-24   -936.70552            0   -936.70552   -252.13418 
     590 8.0420747e-24   -936.70552            0   -936.70552   -252.13418 
     600 7.5667483e-24   -936.70552            0   -936.70552   -252.13418 
     610 8.0418812e-24   -936.70552            0   -936.70552   -252.13418 
     620 8.6852975e-24   -936.70552            0   -936.70552   -252.13418 
     630 8.4734607e-24   -936.70552            0   -936.70552   -252.13418 
     640 9.1131712e-24   -936.70552            0   -936.70552   -252.13418 
     650 9.0264792e-24   -936.70552            0   -936.70552   -252.13418 
     660 9.3698937e-24   -936.70552            0   -936.70552   -252.13418 
     670 9.6069872e-24   -936.70552            0   -936.70552   -252.13418 
     680 1.0260803e-23   -936.70552            0   -936.70552   -252.13418 
     690 9.5678187e-24   -936.70552            0   -936.70552   -252.13418 
     700 1.0279811e-23   -936.70552            0   -936.70552   -252.13418 
     710 1.0978158e-23   -936.70552            0   -936.70552   -252.13418 
     720 9.9720315e-24   -936.70552            0   -936.70552   -252.13418 
     730 1.1552891e-23   -936.70552            0   -936.70552   -252.13418 
     740 1.1694237e-23   -936.70552            0   -936.70552   -252.13418 
     750 1.0818348e-23   -936.70552            0   -936.70552   -252.13418 
     760 1.1845367e-23   -936.70552            0   -936.70552   -252.13418 
     770 1.1900422e-23   -936.70552            0   -936.70552   -252.13418 
     780 1.2038191e-23   -936.70552            0   -936.70552   -252.13418 
     790 1.2925573e-23   -936.70552            0   -936.70552   -252.13418 
     800 1.2179523e-23   -936.70552            0   -936.70552   -252.13418 
     810 1.3002256e-23   -936.70552            0   -936.70552   -252.13418 
     820 1.3846877e-23   -936.70552            0   -936.70552   -252.13418 
     830 1.349259e-23   -936.70552            0   -936.70552   -252.13418 
     840 1.3482136e-23   -936.70552            0   -936.70552   -252.13418 
     850 1.4355683e-23   -936.70552            0   -936.70552   -252.13418 
     860 1.4529767e-23   -936.70552            0   -936.70552   -252.13418 
     870 1.4049023e-23   -936.70552            0   -936.70552   -252.13418 
     880 1.4817095e-23   -936.70552            0   -936.70552   -252.13418 
     890 1.5916767e-23   -936.70552            0   -936.70552   -252.13418 
     900 1.4875607e-23   -936.70552            0   -936.70552   -252.13418 
     910 1.4708269e-23   -936.70552            0   -936.70552   -252.13418 
     920 1.6713412e-23   -936.70552            0   -936.70552   -252.13418 
     930 1.5647149e-23   -936.70552            0   -936.70552   -252.13418 
     940 1.6737905e-23   -936.70552            0   -936.70552   -252.13418 
     950 1.6571426e-23   -936.70552            0   -936.70552   -252.13418 
     960 1.6166966e-23   -936.70552            0   -936.70552   -252.13418 
     970 1.710653e-23   -936.70552            0   -936.70552   -252.13418 
     980 1.785586e-23   -936.70552            0   -936.70552   -252.13418 
     990 1.6190455e-23   -936.70552            0   -936.70552   -252.13418 
    1000 1.803243e-23   -936.70552            0   -936.70552   -252.13418 
    1001 1.7839215e-23   -936.70552            0   -936.70552   -252.13418 
Loop time of 0.921109 on 1 procs for 1000 steps with 216 atoms

Performance: 469.000 ns/day, 0.051 hours/ns, 1085.648 timesteps/s
98.1% CPU use with 1 MPI tasks x no OpenMP threads

MPI task timing breakdown:
Section |  min time  |  avg time  |  max time  |%varavg| %total
---------------------------------------------------------------
Pair    | 0.43658    | 0.43658    | 0.43658    |   0.0 | 47.40
Neigh   | 0          | 0          | 0          |   0.0 |  0.00
Comm    | 0.0033374  | 0.0033374  | 0.0033374  |   0.0 |  0.36
Output  | 0.47239    | 0.47239    | 0.47239    |   0.0 | 51.28
Modify  | 0.006294   | 0.006294   | 0.006294   |   0.0 |  0.68
Other   |            | 0.00251    |            |       |  0.27

Nlocal:    216 ave 216 max 216 min
Histogram: 1 0 0 0 0 0 0 0 0 0
Nghost:    648 ave 648 max 648 min
Histogram: 1 0 0 0 0 0 0 0 0 0
Neighs:    0 ave 0 max 0 min
Histogram: 1 0 0 0 0 0 0 0 0 0
FullNghs:  6048 ave 6048 max 6048 min
Histogram: 1 0 0 0 0 0 0 0 0 0

Total # of neighbors = 6048
Ave neighs/atom = 28
Neighbor list builds = 0
Dangerous builds = 0
unfix		 1

print            "@@@@ (lattice parameter, rho, energy per atom):  $x $r $P"
@@@@ (lattice parameter, rho, energy per atom):  5.4314 0.0499292017926393 -4.33659960798848

clear
next             x
jump             in.Silicon
# bulk Silicon lattice
units            metal
boundary         p p p

atom_style       atomic

variable         x index 5.4305 5.4306 5.4307 5.4308 5.4309 5.4310 5.4311 5.4312 5.4313 5.4314 5.4315

lattice          diamond $x
lattice          diamond 5.4315
Lattice spacing in x,y,z = 5.4315 5.4315 5.4315
#lattice         diamond 5.431
#lattice         fcc 3.615
#lattice         bcc 3.28
#lattice         sc 2.60

region           box block 0 3 0 3 0 3
create_box       1 box
Created orthogonal box = (0 0 0) to (16.2945 16.2945 16.2945)
  1 by 1 by 1 MPI processor grid
create_atoms     1 box
Created 216 atoms

pair_style       sw
pair_coeff       * * Si.sw Si
Reading potential file Si.sw with DATE: 2007-06-11
mass             1 28
neighbor         1.0 bin
neighbor         1.0 bin
neigh_modify     every 1 delay 5 check yes

variable         P equal pe/216
variable         r equal 216/($x*3)^3
variable         r equal 216/(5.4315*3)^3
timestep         0.005
thermo           10

min_style        sd
minimize         1.0e-12 1.0e-12 1000 1000
WARNING: Resetting reneighboring criteria during minimization (../min.cpp:168)
Neighbor list info ...
  1 neighbor list requests
  update every 1 steps, delay 0 steps, check yes
  max neighbors/atom: 2000, page size: 100000
  master list distance cutoff = 4.77118
  ghost atom cutoff = 4.77118
  binsize = 2.38559 -> bins = 7 7 7
Memory usage per processor = 3.62447 Mbytes
Step Temp E_pair E_mol TotEng Press 
       0            0   -936.70547            0   -936.70547   -308.10868 
       1            0   -936.70547            0   -936.70547   -308.10868 
Loop time of 0.00132561 on 1 procs for 1 steps with 216 atoms

0.0% CPU use with 1 MPI tasks x no OpenMP threads

Minimization stats:
  Stopping criterion = quadratic factors are zero
  Energy initial, next-to-last, final = 
        -936.705473547     -936.705473547     -936.705473547
  Force two-norm initial, final = 1.83995e-18 1.83995e-18
  Force max component initial, final = 4.33681e-19 4.33681e-19
  Final line search alpha, max atom move = 1 4.33681e-19
  Iterations, force evaluations = 1 2

MPI task timing breakdown:
Section |  min time  |  avg time  |  max time  |%varavg| %total
---------------------------------------------------------------
Pair    | 0.0012913  | 0.0012913  | 0.0012913  |   0.0 | 97.41
Neigh   | 0          | 0          | 0          |   0.0 |  0.00
Comm    | 9.7752e-06 | 9.7752e-06 | 9.7752e-06 |   0.0 |  0.74
Output  | 0          | 0          | 0          |   0.0 |  0.00
Modify  | 0          | 0          | 0          |   0.0 |  0.00
Other   |            | 2.456e-05  |            |       |  1.85

Nlocal:    216 ave 216 max 216 min
Histogram: 1 0 0 0 0 0 0 0 0 0
Nghost:    648 ave 648 max 648 min
Histogram: 1 0 0 0 0 0 0 0 0 0
Neighs:    0 ave 0 max 0 min
Histogram: 1 0 0 0 0 0 0 0 0 0
FullNghs:  6048 ave 6048 max 6048 min
Histogram: 1 0 0 0 0 0 0 0 0 0

Total # of neighbors = 6048
Ave neighs/atom = 28
Neighbor list builds = 0
Dangerous builds = 0

compute          3 all pe/atom
compute          4 all ke/atom
compute          5 all coord/atom 3.0
dump             1 all custom 1 dc.lammpstrj id type xs ys zs c_3 c_4 c_5

fix 		 1 all nvt temp 0.1 0.1 2 drag 0.2
run 1000
Neighbor list info ...
  2 neighbor list requests
  update every 1 steps, delay 5 steps, check yes
  max neighbors/atom: 2000, page size: 100000
  master list distance cutoff = 4.77118
  ghost atom cutoff = 4.77118
  binsize = 2.38559 -> bins = 7 7 7
Memory usage per processor = 4.26265 Mbytes
Step Temp E_pair E_mol TotEng Press 
       1            0   -936.70547            0   -936.70547   -308.10868 
      10 4.2516148e-35   -936.70547            0   -936.70547   -308.10868 
      20  1.89705e-34   -936.70547            0   -936.70547   -308.10868 
      30 4.4281766e-34   -936.70547            0   -936.70547   -308.10868 
      40 8.0309219e-34   -936.70547            0   -936.70547   -308.10868 
      50 1.2722648e-33   -936.70547            0   -936.70547   -308.10868 
      60 1.8525361e-33   -936.70547            0   -936.70547   -308.10868 
      70 2.5465009e-33   -936.70547            0   -936.70547   -308.10868 
      80 3.357025e-33   -936.70547            0   -936.70547   -308.10868 
      90 4.2870627e-33   -936.70547            0   -936.70547   -308.10868 
     100 5.3394248e-33   -936.70547            0   -936.70547   -308.10868 
     110 6.5165308e-33   -936.70547            0   -936.70547   -308.10868 
     120 7.8202043e-33   -936.70547            0   -936.70547   -308.10868 
     130 9.2515755e-33   -936.70547            0   -936.70547   -308.10868 
     140 1.0811138e-32   -936.70547            0   -936.70547   -308.10868 
     150 1.2498958e-32   -936.70547            0   -936.70547   -308.10868 
     160 1.4314993e-32   -936.70547            0   -936.70547   -308.10868 
     170 1.6259422e-32   -936.70547            0   -936.70547   -308.10868 
     180 1.8332932e-32   -936.70547            0   -936.70547   -308.10868 
     190 2.0536884e-32   -936.70547            0   -936.70547   -308.10868 
     200 2.2873377e-32   -936.70547            0   -936.70547   -308.10868 
     210 2.5345228e-32   -936.70547            0   -936.70547   -308.10868 
     220 2.7955885e-32   -936.70547            0   -936.70547   -308.10868 
     230 3.0709328e-32   -936.70547            0   -936.70547   -308.10868 
     240 3.3609943e-32   -936.70547            0   -936.70547   -308.10868 
     250 3.6662411e-32   -936.70547            0   -936.70547   -308.10868 
     260 3.987158e-32   -936.70547            0   -936.70547   -308.10868 
     270 4.324236e-32   -936.70547            0   -936.70547   -308.10868 
     280 4.6779606e-32   -936.70547            0   -936.70547   -308.10868 
     290 5.0488033e-32   -936.70547            0   -936.70547   -308.10868 
     300 5.4372135e-32   -936.70547            0   -936.70547   -308.10868 
     310 5.8436132e-32   -936.70547            0   -936.70547   -308.10868 
     320 6.2683949e-32   -936.70547            0   -936.70547   -308.10868 
     330 6.7119221e-32   -936.70547            0   -936.70547   -308.10868 
     340 7.1745326e-32   -936.70547            0   -936.70547   -308.10868 
     350 7.6565439e-32   -936.70547            0   -936.70547   -308.10868 
     360 8.1582613e-32   -936.70547            0   -936.70547   -308.10868 
     370 8.6799851e-32   -936.70547            0   -936.70547   -308.10868 
     380 9.2220188e-32   -936.70547            0   -936.70547   -308.10868 
     390 9.7846761e-32   -936.70547            0   -936.70547   -308.10868 
     400 1.0368287e-31   -936.70547            0   -936.70547   -308.10868 
     410  1.09732e-31   -936.70547            0   -936.70547   -308.10868 
     420 1.1599787e-31   -936.70547            0   -936.70547   -308.10868 
     430 1.2248442e-31   -936.70547            0   -936.70547   -308.10868 
     440 1.291958e-31   -936.70547            0   -936.70547   -308.10868 
     450 1.3613639e-31   -936.70547            0   -936.70547   -308.10868 
     460 1.4331072e-31   -936.70547            0   -936.70547   -308.10868 
     470 1.507235e-31   -936.70547            0   -936.70547   -308.10868 
     480 1.5837956e-31   -936.70547            0   -936.70547   -308.10868 
     490 1.6628384e-31   -936.70547            0   -936.70547   -308.10868 
     500 1.7444138e-31   -936.70547            0   -936.70547   -308.10868 
     510 1.8285729e-31   -936.70547            0   -936.70547   -308.10868 
     520 1.9153673e-31   -936.70547            0   -936.70547   -308.10868 
     530 2.0048495e-31   -936.70547            0   -936.70547   -308.10868 
     540 2.0970722e-31   -936.70547            0   -936.70547   -308.10868 
     550 2.1920889e-31   -936.70547            0   -936.70547   -308.10868 
     560 2.2899538e-31   -936.70547            0   -936.70547   -308.10868 
     570 2.3907214e-31   -936.70547            0   -936.70547   -308.10868 
     580 2.4944472e-31   -936.70547            0   -936.70547   -308.10868 
     590 2.6011875e-31   -936.70547            0   -936.70547   -308.10868 
     600 2.7109992e-31   -936.70547            0   -936.70547   -308.10868 
     610 2.8239405e-31   -936.70547            0   -936.70547   -308.10868 
     620 2.9400702e-31   -936.70547            0   -936.70547   -308.10868 
     630 3.0594482e-31   -936.70547            0   -936.70547   -308.10868 
     640 3.1821356e-31   -936.70547            0   -936.70547   -308.10868 
     650 3.3081944e-31   -936.70547            0   -936.70547   -308.10868 
     660 3.4376878e-31   -936.70547            0   -936.70547   -308.10868 
     670 3.5706799e-31   -936.70547            0   -936.70547   -308.10868 
     680 3.7072363e-31   -936.70547            0   -936.70547   -308.10868 
     690 3.8474234e-31   -936.70547            0   -936.70547   -308.10868 
     700 3.9913088e-31   -936.70547            0   -936.70547   -308.10868 
     710 4.1389615e-31   -936.70547            0   -936.70547   -308.10868 
     720 4.2904515e-31   -936.70547            0   -936.70547   -308.10868 
     730 4.4458498e-31   -936.70547            0   -936.70547   -308.10868 
     740 4.605229e-31   -936.70547            0   -936.70547   -308.10868 
     750 4.7686626e-31   -936.70547            0   -936.70547   -308.10868 
     760 4.9362254e-31   -936.70547            0   -936.70547   -308.10868 
     770 5.1079934e-31   -936.70547            0   -936.70547   -308.10868 
     780 5.2840441e-31   -936.70547            0   -936.70547   -308.10868 
     790 5.464456e-31   -936.70547            0   -936.70547   -308.10868 
     800 5.6493089e-31   -936.70547            0   -936.70547   -308.10868 
     810 5.8386841e-31   -936.70547            0   -936.70547   -308.10868 
     820 6.0326641e-31   -936.70547            0   -936.70547   -308.10868 
     830 6.2313329e-31   -936.70547            0   -936.70547   -308.10868 
     840 6.4347758e-31   -936.70547            0   -936.70547   -308.10868 
     850 6.6430793e-31   -936.70547            0   -936.70547   -308.10868 
     860 6.8563317e-31   -936.70547            0   -936.70547   -308.10868 
     870 7.0746225e-31   -936.70547            0   -936.70547   -308.10868 
     880 7.2980427e-31   -936.70547            0   -936.70547   -308.10868 
     890 7.5266849e-31   -936.70547            0   -936.70547   -308.10868 
     900 7.7606431e-31   -936.70547            0   -936.70547   -308.10868 
     910 8.0000129e-31   -936.70547            0   -936.70547   -308.10868 
     920 8.2448915e-31   -936.70547            0   -936.70547   -308.10868 
     930 8.4953775e-31   -936.70547            0   -936.70547   -308.10868 
     940 8.7515714e-31   -936.70547            0   -936.70547   -308.10868 
     950 9.013575e-31   -936.70547            0   -936.70547   -308.10868 
     960 9.2814922e-31   -936.70547            0   -936.70547   -308.10868 
     970 9.5554282e-31   -936.70547            0   -936.70547   -308.10868 
     980  9.83549e-31   -936.70547            0   -936.70547   -308.10868 
     990 1.0121787e-30   -936.70547            0   -936.70547   -308.10868 
    1000 1.0414428e-30   -936.70547            0   -936.70547   -308.10868 
    1001 1.0444046e-30   -936.70547            0   -936.70547   -308.10868 
Loop time of 0.926843 on 1 procs for 1000 steps with 216 atoms

Performance: 466.098 ns/day, 0.051 hours/ns, 1078.931 timesteps/s
97.5% CPU use with 1 MPI tasks x no OpenMP threads

MPI task timing breakdown:
Section |  min time  |  avg time  |  max time  |%varavg| %total
---------------------------------------------------------------
Pair    | 0.44149    | 0.44149    | 0.44149    |   0.0 | 47.63
Neigh   | 0          | 0          | 0          |   0.0 |  0.00
Comm    | 0.0033896  | 0.0033896  | 0.0033896  |   0.0 |  0.37
Output  | 0.47263    | 0.47263    | 0.47263    |   0.0 | 50.99
Modify  | 0.0068941  | 0.0068941  | 0.0068941  |   0.0 |  0.74
Other   |            | 0.002439   |            |       |  0.26

Nlocal:    216 ave 216 max 216 min
Histogram: 1 0 0 0 0 0 0 0 0 0
Nghost:    648 ave 648 max 648 min
Histogram: 1 0 0 0 0 0 0 0 0 0
Neighs:    0 ave 0 max 0 min
Histogram: 1 0 0 0 0 0 0 0 0 0
FullNghs:  6048 ave 6048 max 6048 min
Histogram: 1 0 0 0 0 0 0 0 0 0

Total # of neighbors = 6048
Ave neighs/atom = 28
Neighbor list builds = 0
Dangerous builds = 0
unfix		 1

print            "@@@@ (lattice parameter, rho, energy per atom):  $x $r $P"
@@@@ (lattice parameter, rho, energy per atom):  5.4315 0.0499264440857878 -4.33659941456886

clear
next             x
jump             in.Silicon

Total wall time: 0:00:11
