ITEM: TIMESTEP
0
ITEM: NUMBER OF ATOMS
128
ITEM: BOX BOUNDS pp pp pp
-6.0000000000000000e+00 5.9723215200000004e+00
-6.0000000000000000e+00 5.9723215200000004e+00
-6.0000000000000000e+00 5.9723215200000004e+00
ITEM: ATOMS id type xs ys zs
116 1 0.104267 0.236446 0.132808
1 2 0.255769 0.128692 0.0993191
17 2 0.484892 0.153039 0.0254677
50 2 0.526063 0.239007 0.237146
77 1 0.414922 0.0154102 0.139774
109 1 0.643158 0.099267 0.150732
81 2 0.828253 0.116495 0.223919
128 1 0.927041 0.0519999 0.0914504
91 2 0.0225889 0.321778 0.000303659
21 2 0.259933 0.487512 0.22217
68 1 0.365964 0.468044 0.0687317
53 2 0.476648 0.434089 0.219686
49 2 0.687542 0.269545 0.0638401
85 2 0.691223 0.448303 0.0172745
86 1 0.657585 0.37165 0.21249
5 2 0.99128 0.491797 0.201804
92 1 0.857512 0.275728 0.0166594
113 1 0.898395 0.310067 0.21097
14 2 0.0611079 0.00673505 0.261865
45 1 0.060704 0.116325 0.421123
18 2 0.251474 0.236818 0.366062
46 1 0.268213 0.0258083 0.434986
19 2 0.424902 0.135153 0.487776
78 1 0.564823 0.136718 0.391264
51 2 0.741801 0.211666 0.452517
125 1 0.84852 0.0760352 0.405573
6 2 0.190651 0.445834 0.470128
22 1 0.110766 0.385829 0.309491
54 1 0.416998 0.330079 0.338954
87 2 0.789806 0.408826 0.348027
96 1 0.65211 0.435705 0.462884
2 2 0.970757 0.272837 0.357846
88 1 0.866901 0.33856 0.473721
83 2 0.00171656 0.147262 0.656903
126 1 0.108887 0.0214676 0.596023
3 2 0.278855 0.0381625 0.637752
52 2 0.522118 0.0200861 0.729932
56 1 0.593961 0.233838 0.580431
58 1 0.431476 0.139133 0.676322
89 2 0.718317 0.187524 0.716157
90 1 0.835126 0.126487 0.601125
32 1 0.157836 0.441908 0.66271
114 1 0.0413429 0.275407 0.574232
24 1 0.27236 0.294222 0.521095
25 2 0.279384 0.273715 0.721249
23 2 0.442905 0.376825 0.551315
27 2 0.561525 0.328178 0.745175
57 2 0.641265 0.435155 0.711297
98 1 0.802527 0.356525 0.701777
4 2 0.0473856 0.115478 0.997737
20 2 0.296403 0.0629243 0.909455
26 1 0.211786 0.116701 0.783622
28 1 0.325747 0.232776 0.979538
80 1 0.464821 0.0167298 0.885034
60 1 0.644205 0.219745 0.881876
69 2 0.718323 0.0670069 0.987534
112 1 0.762677 0.00900008 0.801859
84 2 0.863157 0.126582 0.950003
115 1 0.989103 0.116399 0.824519
7 2 0.0774726 0.286731 0.869534
34 1 0.216788 0.381012 0.867864
66 1 0.419815 0.364798 0.814701
59 2 0.774682 0.391671 0.901118
99 2 0.887726 0.477222 0.874989
119 1 0.993538 0.397395 0.761768
120 1 0.999604 0.495204 0.993659
9 2 0.0472123 0.66423 0.0318991
36 1 0.128959 0.601996 0.189519
35 2 0.242722 0.619199 0.0531601
70 1 0.365254 0.695027 0.197957
61 2 0.541003 0.649573 0.055629
94 1 0.698303 0.613218 0.13219
93 2 0.87915 0.692488 0.210771
108 1 0.874756 0.721795 0.0338046
13 2 0.0482038 0.940249 0.123928
48 1 0.176908 0.98942 0.0203521
37 2 0.283479 0.888495 0.109386
44 1 0.34572 0.778113 0.00178281
39 2 0.568993 0.907112 0.110998
102 1 0.771791 0.849085 0.20823
71 2 0.806299 0.912794 0.0474488
101 2 0.988459 0.87691 0.00280195
10 2 0.117899 0.692468 0.412637
118 1 0.0261458 0.518215 0.485146
29 2 0.241744 0.694976 0.311338
30 1 0.314903 0.561031 0.391677
62 1 0.525749 0.550376 0.317147
55 2 0.674298 0.625797 0.301545
95 2 0.900135 0.618604 0.438306
117 1 0.83029 0.5612 0.309892
121 1 0.0316687 0.781804 0.254808
38 1 0.221532 0.891791 0.281611
40 1 0.286019 0.782979 0.483312
33 2 0.471875 0.774346 0.477095
41 2 0.468848 0.991834 0.32475
72 1 0.507746 0.837273 0.292245
63 2 0.685241 0.764744 0.331792
82 2 0.661865 0.980136 0.336157
110 1 0.645 0.850949 0.470145
103 2 0.908097 0.908011 0.306003
122 1 0.936036 0.78947 0.469409
11 2 0.00786262 0.553046 0.669273
123 1 0.10863 0.71406 0.653987
15 2 0.262181 0.58873 0.670706
31 2 0.344977 0.618149 0.561838
64 1 0.497777 0.54098 0.587993
65 2 0.596341 0.699642 0.697283
73 2 0.739677 0.719732 0.677609
104 1 0.797894 0.603582 0.559013
97 2 0.874893 0.532363 0.677131
105 2 0.0152573 0.880535 0.63128
47 1 0.294703 0.883721 0.710666
79 1 0.528416 0.834737 0.636237
111 1 0.828729 0.884837 0.61194
12 2 0.102899 0.517575 0.862554
107 2 0.0388454 0.660415 0.814413
8 2 0.217573 0.579179 0.913028
42 1 0.361114 0.612866 0.824748
67 2 0.473659 0.526189 0.941929
74 1 0.582502 0.720456 0.86376
100 1 0.651296 0.525324 0.854728
106 1 0.832614 0.63013 0.82093
16 2 0.161113 0.944955 0.818634
124 1 0.160717 0.7578 0.924198
43 2 0.427899 0.782939 0.867392
76 1 0.674933 0.894054 0.946185
75 2 0.813985 0.789499 0.884928
127 1 0.968853 0.892784 0.801417
ITEM: TIMESTEP
1
ITEM: NUMBER OF ATOMS
128
ITEM: BOX BOUNDS pp pp pp
-6.0000000000000000e+00 5.9723215200000004e+00
-6.0000000000000000e+00 5.9723215200000004e+00
-6.0000000000000000e+00 5.9723215200000004e+00
ITEM: ATOMS id type xs ys zs
116 1 0.104274 0.236431 0.132806
1 2 0.255737 0.128679 0.0993434
17 2 0.484893 0.15297 0.0253958
50 2 0.526249 0.238894 0.237128
77 1 0.41491 0.0154156 0.139801
109 1 0.643178 0.0992697 0.150727
81 2 0.828267 0.116562 0.223889
128 1 0.926932 0.0519766 0.0914749
91 2 0.0226264 0.321751 0.00017423
21 2 0.259892 0.487525 0.222218
68 1 0.365956 0.468047 0.0687809
53 2 0.476752 0.434074 0.219467
49 2 0.687556 0.269554 0.0638915
85 2 0.691144 0.448333 0.0173444
86 1 0.657531 0.37163 0.212493
5 2 0.991226 0.491738 0.20181
92 1 0.857481 0.275749 0.0165352
113 1 0.898376 0.310093 0.211042
14 2 0.06113 0.00670972 0.261918
45 1 0.0607022 0.116393 0.421073
18 2 0.251373 0.236788 0.365865
46 1 0.268319 0.0258332 0.434993
19 2 0.424774 0.135281 0.488071
78 1 0.564896 0.136718 0.391252
51 2 0.741852 0.211646 0.452564
125 1 0.848507 0.0759971 0.405543
6 2 0.19071 0.445883 0.470068
22 1 0.110781 0.385802 0.309505
54 1 0.416924 0.330069 0.339054
87 2 0.789677 0.408819 0.347846
96 1 0.65212 0.435692 0.4629
2 2 0.970936 0.272784 0.357975
88 1 0.866897 0.33856 0.473762
83 2 0.00161802 0.14705 0.656892
126 1 0.108851 0.0214597 0.596078
3 2 0.278846 0.0381363 0.637767
52 2 0.522445 0.0196888 0.729971
56 1 0.593975 0.233895 0.58038
58 1 0.431334 0.139229 0.676219
89 2 0.71835 0.18762 0.716097
90 1 0.835165 0.126456 0.601111
32 1 0.15794 0.441946 0.662686
114 1 0.0413942 0.27541 0.574196
24 1 0.272353 0.294232 0.521207
25 2 0.279451 0.27374 0.721254
23 2 0.442909 0.376659 0.551184
27 2 0.561874 0.328005 0.745086
57 2 0.641238 0.435186 0.71131
98 1 0.802503 0.356545 0.701761
4 2 0.0475203 0.115503 0.997697
20 2 0.296579 0.063077 0.909602
26 1 0.211741 0.116756 0.78357
28 1 0.325785 0.232714 0.979579
80 1 0.464816 0.0166973 0.885114
60 1 0.644189 0.21977 0.881884
69 2 0.718392 0.0671098 0.987512
112 1 0.762637 0.00898347 0.801831
84 2 0.863048 0.126489 0.950024
115 1 0.98913 0.116416 0.824552
7 2 0.0772888 0.286735 0.869624
34 1 0.216776 0.381034 0.86777
66 1 0.419717 0.364848 0.814721
59 2 0.774785 0.391666 0.901016
99 2 0.887631 0.477159 0.874969
119 1 0.993469 0.397395 0.761838
120 1 0.999626 0.495206 0.993721
9 2 0.047217 0.664096 0.031964
36 1 0.128967 0.602001 0.189487
35 2 0.242779 0.619191 0.053036
70 1 0.365317 0.695043 0.197896
61 2 0.540898 0.64958 0.0555387
94 1 0.698315 0.613205 0.132174
93 2 0.879121 0.69263 0.210708
108 1 0.874779 0.721864 0.0338344
13 2 0.0481831 0.940157 0.123889
48 1 0.17692 0.989417 0.0202863
37 2 0.283511 0.888716 0.109455
44 1 0.345788 0.778049 0.00200904
39 2 0.569024 0.907138 0.111064
102 1 0.771772 0.849122 0.208261
71 2 0.806579 0.91268 0.0476558
101 2 0.988524 0.876861 0.00270746
10 2 0.117858 0.692519 0.412698
118 1 0.0261396 0.518235 0.485177
29 2 0.241673 0.69498 0.311311
30 1 0.314891 0.560986 0.391707
62 1 0.525734 0.550421 0.317188
55 2 0.674363 0.625957 0.301534
95 2 0.90023 0.618713 0.438399
117 1 0.830307 0.561186 0.309876
121 1 0.0316846 0.781836 0.254821
38 1 0.221496 0.891734 0.281529
40 1 0.286024 0.782991 0.483338
33 2 0.471679 0.774225 0.476948
41 2 0.468482 0.992159 0.324661
72 1 0.507838 0.837088 0.292242
63 2 0.685128 0.764541 0.331647
82 2 0.661923 0.980232 0.336147
110 1 0.64504 0.851015 0.470245
103 2 0.908117 0.908022 0.306065
122 1 0.936149 0.789441 0.46933
11 2 0.00817777 0.553001 0.669162
123 1 0.108621 0.714031 0.653982
15 2 0.262151 0.588773 0.670715
31 2 0.344901 0.618177 0.561775
64 1 0.497817 0.541029 0.588049
65 2 0.596496 0.699539 0.697259
73 2 0.739642 0.719703 0.677599
104 1 0.797806 0.603591 0.558984
97 2 0.874794 0.53224 0.677332
105 2 0.0151601 0.88041 0.631158
47 1 0.294733 0.883693 0.710649
79 1 0.528402 0.834864 0.636217
111 1 0.828656 0.884885 0.612032
12 2 0.102777 0.517663 0.86255
107 2 0.0388668 0.660361 0.814422
8 2 0.217629 0.579357 0.913144
42 1 0.361123 0.612875 0.824727
67 2 0.47364 0.526208 0.941852
74 1 0.582481 0.720484 0.863795
100 1 0.651297 0.525251 0.854766
106 1 0.832628 0.630125 0.820865
16 2 0.161037 0.944808 0.818784
124 1 0.160533 0.75778 0.924177
43 2 0.427906 0.782935 0.867118
76 1 0.674879 0.894072 0.946113
75 2 0.814042 0.789504 0.884833
127 1 0.968835 0.8928 0.801437
ITEM: TIMESTEP
2
ITEM: NUMBER OF ATOMS
128
ITEM: BOX BOUNDS pp pp pp
-6.0000000000000000e+00 5.9723215200000004e+00
-6.0000000000000000e+00 5.9723215200000004e+00
-6.0000000000000000e+00 5.9723215200000004e+00
ITEM: ATOMS id type xs ys zs
116 1 0.104296 0.236389 0.132799
1 2 0.255641 0.128642 0.0994148
17 2 0.484896 0.152764 0.0251808
50 2 0.526795 0.238566 0.237081
77 1 0.414873 0.0154312 0.139877
109 1 0.643238 0.099278 0.150713
81 2 0.828308 0.116762 0.223802
128 1 0.92661 0.0519075 0.0915467
91 2 0.0227354 0.321671 -0.000206487
21 2 0.259768 0.487565 0.222362
68 1 0.365933 0.468057 0.0689276
53 2 0.477056 0.434019 0.218828
49 2 0.687595 0.26958 0.064044
85 2 0.690913 0.448419 0.0175517
86 1 0.657371 0.37157 0.2125
5 2 0.991065 0.491565 0.201829
92 1 0.85739 0.275814 0.016167
113 1 0.898318 0.310169 0.211259
14 2 0.0611951 0.00663252 0.262074
45 1 0.0606972 0.116597 0.420925
18 2 0.251074 0.236698 0.365294
46 1 0.268636 0.0259078 0.435011
19 2 0.424397 0.135658 0.488929
78 1 0.565107 0.13672 0.391219
51 2 0.742004 0.211588 0.452703
125 1 0.848466 0.0758825 0.405455
6 2 0.190885 0.446026 0.469888
22 1 0.110826 0.385722 0.309549
54 1 0.416708 0.330045 0.339343
87 2 0.789296 0.408794 0.347312
96 1 0.652152 0.435653 0.462946
2 2 0.971468 0.27263 0.358357
88 1 0.866884 0.338562 0.473884
83 2 0.00132644 0.146428 0.656857
126 1 0.108743 0.0214355 0.596241
3 2 0.278817 0.0380552 0.637812
52 2 0.523391 0.0185517 0.730064
56 1 0.594016 0.234064 0.580229
58 1 0.430927 0.139498 0.675922
89 2 0.718448 0.187901 0.715919
90 1 0.835283 0.126361 0.601068
32 1 0.158245 0.442052 0.662624
114 1 0.0415465 0.275418 0.574092
24 1 0.272333 0.294261 0.521536
25 2 0.279647 0.273811 0.721265
23 2 0.44292 0.376172 0.550802
27 2 0.562873 0.327501 0.744839
57 2 0.641159 0.435278 0.711346
98 1 0.802429 0.356604 0.701712
4 2 0.0479154 0.115571 0.997585
20 2 0.297094 0.0635353 0.910031
26 1 0.211609 0.116916 0.783417
28 1 0.325898 0.232531 0.9797
80 1 0.464801 0.0166011 0.885352
60 1 0.644142 0.219846 0.881908
69 2 0.718598 0.0674153 0.987442
112 1 0.76252 0.00893696 0.801747
84 2 0.862725 0.126213 0.950088
115 1 0.989209 0.116466 0.824649
7 2 0.0767457 0.286746 0.869891
34 1 0.216741 0.381098 0.867489
66 1 0.41944 0.364991 0.814773
59 2 0.775084 0.391656 0.900716
99 2 0.887354 0.476974 0.874911
119 1 0.993271 0.397393 0.762042
120 1 0.999691 0.495211 0.993904
9 2 0.0472292 0.663697 0.0321578
36 1 0.128993 0.602017 0.189392
35 2 0.242955 0.619169 0.0526758
70 1 0.365505 0.695087 0.197718
61 2 0.540587 0.649597 0.05527
94 1 0.69835 0.613165 0.132129
93 2 0.879029 0.693051 0.21052
108 1 0.874849 0.722073 0.0339217
13 2 0.0481206 0.939884 0.12377
48 1 0.176955 0.989406 0.0200889
37 2 0.283611 0.889369 0.109664
44 1 0.345984 0.777862 0.00266394
39 2 0.569116 0.907217 0.111259
102 1 0.771715 0.849228 0.208357
71 2 0.807395 0.912337 0.0482565
101 2 0.988719 0.876716 0.0024267
10 2 0.117737 0.692671 0.412881
118 1 0.026122 0.518293 0.48527
29 2 0.241462 0.694989 0.311227
30 1 0.314854 0.560854 0.391798
62 1 0.525689 0.550554 0.317308
55 2 0.674555 0.62642 0.3015
95 2 0.900507 0.619035 0.438672
117 1 0.83036 0.561147 0.309831
121 1 0.0317317 0.781932 0.254858
38 1 0.221389 0.891562 0.281285
40 1 0.286038 0.783026 0.483417
33 2 0.471105 0.773868 0.476519
41 2 0.467411 0.993073 0.324398
72 1 0.508105 0.836558 0.292236
63 2 0.68479 0.763955 0.331223
82 2 0.662095 0.980513 0.336119
110 1 0.645159 0.851206 0.470536
103 2 0.908173 0.908058 0.306248
122 1 0.936472 0.789359 0.469104
11 2 0.00907655 0.552881 0.668824
123 1 0.108597 0.713944 0.653969
15 2 0.262064 0.588902 0.670739
31 2 0.344674 0.618259 0.561589
64 1 0.497933 0.541173 0.588217
65 2 0.596949 0.699243 0.69718
73 2 0.739539 0.719617 0.677568
104 1 0.797546 0.603617 0.558901
97 2 0.874524 0.531882 0.677921
105 2 0.0148853 0.880047 0.630811
47 1 0.294819 0.88361 0.710598
79 1 0.528361 0.835235 0.63616
111 1 0.828444 0.885016 0.612293
12 2 0.102425 0.517931 0.862541
107 2 0.0389314 0.6602 0.814444
8 2 0.217786 0.579881 0.91348
42 1 0.361148 0.612901 0.824664
67 2 0.473582 0.526266 0.941622
74 1 0.582419 0.720564 0.863899
100 1 0.651302 0.52503 0.854876
106 1 0.832668 0.630114 0.820672
16 2 0.160812 0.944374 0.819232
124 1 0.159995 0.757724 0.924119
43 2 0.427916 0.782921 0.866324
76 1 0.674723 0.894126 0.945909
75 2 0.814211 0.789522 0.884556
127 1 0.968779 0.892845 0.801495
ITEM: TIMESTEP
3
ITEM: NUMBER OF ATOMS
128
ITEM: BOX BOUNDS pp pp pp
-6.0000000000000000e+00 5.9723215200000004e+00
-6.0000000000000000e+00 5.9723215200000004e+00
-6.0000000000000000e+00 5.9723215200000004e+00
ITEM: ATOMS id type xs ys zs
116 1 0.104338 0.236317 0.132783
1 2 0.255483 0.128579 0.0995298
17 2 0.484903 0.152419 0.0248236
50 2 0.527676 0.238054 0.237019
77 1 0.414809 0.015456 0.139992
109 1 0.643336 0.099293 0.15069
81 2 0.828371 0.117093 0.22366
128 1 0.926089 0.0517949 0.0916605
91 2 0.0229054 0.321537 -0.000816428
21 2 0.259562 0.487633 0.222597
68 1 0.365895 0.468075 0.0691689
53 2 0.477545 0.4339 0.217823
49 2 0.68766 0.269621 0.064293
85 2 0.690544 0.448553 0.0178899
86 1 0.657112 0.371471 0.212512
5 2 0.990804 0.491282 0.201859
92 1 0.857245 0.27592 0.0155676
113 1 0.89822 0.310289 0.211613
14 2 0.0612999 0.00650001 0.262324
45 1 0.0606897 0.116931 0.420682
18 2 0.250594 0.236556 0.364403
46 1 0.269156 0.0260322 0.435042
19 2 0.423796 0.136264 0.490284
78 1 0.565436 0.136728 0.391174
51 2 0.742249 0.211497 0.452932
125 1 0.848398 0.0756911 0.405313
6 2 0.191168 0.446256 0.469589
22 1 0.1109 0.385591 0.309622
54 1 0.416366 0.330011 0.339798
87 2 0.788676 0.408741 0.346448
96 1 0.652204 0.435589 0.463023
2 2 0.972338 0.27239 0.358974
88 1 0.866857 0.338568 0.474076
83 2 0.000853285 0.14543 0.656789
126 1 0.108565 0.0213934 0.596506
3 2 0.278764 0.0379126 0.637888
52 2 0.52486 0.0168128 0.730153
56 1 0.594082 0.234339 0.579986
58 1 0.430303 0.139896 0.675463
89 2 0.718605 0.188355 0.715623
90 1 0.835478 0.126203 0.600995
32 1 0.158727 0.442205 0.662547
114 1 0.041794 0.275421 0.573929
24 1 0.272298 0.294309 0.522058
25 2 0.279962 0.273913 0.721271
23 2 0.442936 0.375396 0.55019
27 2 0.564397 0.326704 0.744479
57 2 0.641039 0.435429 0.711399
98 1 0.802313 0.3567 0.701637
4 2 0.0485459 0.115672 0.997422
20 2 0.297911 0.0642971 0.910717
26 1 0.211403 0.117171 0.783177
28 1 0.326081 0.232232 0.979903
80 1 0.464776 0.016444 0.885746
60 1 0.644066 0.219968 0.881951
69 2 0.718943 0.0679144 0.987312
112 1 0.762335 0.00886984 0.801603
84 2 0.862197 0.125762 0.950197
115 1 0.989333 0.11655 0.824807
7 2 0.0758676 0.286768 0.870325
34 1 0.216681 0.381202 0.867026
66 1 0.419029 0.365217 0.814837
59 2 0.775549 0.391649 0.900231
99 2 0.886915 0.476676 0.874826
119 1 0.992971 0.397385 0.762356
120 1 0.999791 0.495215 0.994206
9 2 0.0472433 0.663042 0.0324777
36 1 0.129037 0.602042 0.189234
35 2 0.243264 0.619139 0.0521181
70 1 0.365809 0.695151 0.197444
61 2 0.540085 0.649623 0.0548299
94 1 0.698401 0.613101 0.132053
93 2 0.878873 0.693744 0.210214
108 1 0.874971 0.72242 0.0340611
13 2 0.0480148 0.93944 0.123573
48 1 0.177015 0.989388 0.0197604
37 2 0.283783 0.890423 0.110011
44 1 0.346283 0.777565 0.00368113
39 2 0.569269 0.907351 0.111577
102 1 0.771623 0.8494 0.208522
71 2 0.808678 0.911765 0.0491955
101 2 0.989047 0.876471 0.00196786
10 2 0.117541 0.69292 0.413187
118 1 0.0260955 0.518391 0.485422
29 2 0.241115 0.695004 0.311078
30 1 0.314791 0.560633 0.391946
62 1 0.525617 0.550771 0.317501
55 2 0.67486 0.627141 0.301436
95 2 0.900951 0.619553 0.439105
117 1 0.83045 0.561091 0.30976
121 1 0.0318084 0.78209 0.254919
38 1 0.221216 0.891283 0.280888
40 1 0.286057 0.783081 0.483546
33 2 0.470193 0.773297 0.475836
41 2 0.465716 0.994431 0.323972
72 1 0.508523 0.83575 0.292235
63 2 0.684231 0.763051 0.330549
82 2 0.662383 0.980963 0.336074
110 1 0.645356 0.851513 0.470997
103 2 0.908262 0.908121 0.306544
122 1 0.936962 0.789242 0.468758
11 2 0.0104388 0.552731 0.668257
123 1 0.10856 0.713805 0.653952
15 2 0.261923 0.589119 0.670775
31 2 0.344305 0.618391 0.561286
64 1 0.498123 0.541404 0.58849
65 2 0.597668 0.698794 0.697038
73 2 0.73938 0.719473 0.677519
104 1 0.797123 0.603651 0.558774
97 2 0.874155 0.531318 0.678848
105 2 0.0144821 0.879477 0.630288
47 1 0.294959 0.883476 0.710516
79 1 0.528293 0.83582 0.636071
111 1 0.828117 0.885205 0.612679
12 2 0.101876 0.518388 0.862533
107 2 0.0390394 0.659935 0.814472
8 2 0.218018 0.580715 0.914002
42 1 0.361186 0.612944 0.824561
67 2 0.473487 0.526366 0.941248
74 1 0.582319 0.720694 0.864066
100 1 0.651312 0.524666 0.855057
106 1 0.832733 0.630096 0.820356
16 2 0.160447 0.943677 0.819968
124 1 0.15914 0.757643 0.924037
43 2 0.42789 0.782892 0.865082
76 1 0.674482 0.894212 0.945596
75 2 0.814493 0.789553 0.884114
127 1 0.968686 0.892921 0.801589
ITEM: TIMESTEP
4
ITEM: NUMBER OF ATOMS
128
ITEM: BOX BOUNDS pp pp pp
-6.0000000000000000e+00 5.9723215200000004e+00
-6.0000000000000000e+00 5.9723215200000004e+00
-6.0000000000000000e+00 5.9723215200000004e+00
ITEM: ATOMS id type xs ys zs
116 1 0.104406 0.236214 0.132755
1 2 0.255264 0.128488 0.0996834
17 2 0.484917 0.151937 0.0243263
50 2 0.528853 0.237399 0.236965
77 1 0.414715 0.0154878 0.140134
109 1 0.643474 0.0993159 0.150655
81 2 0.82845 0.117551 0.223469
128 1 0.925392 0.0516414 0.0918086
91 2 0.0231202 0.321353 -0.00162031
21 2 0.259271 0.48773 0.222917
68 1 0.365845 0.468103 0.0695004
53 2 0.478199 0.433688 0.216527
49 2 0.687746 0.269668 0.0646297
85 2 0.69006 0.448723 0.0183528
86 1 0.656761 0.371335 0.212528
5 2 0.99045 0.4909 0.201901
92 1 0.857053 0.276067 0.0147565
113 1 0.89808 0.310447 0.212095
14 2 0.0614391 0.00630695 0.262658
45 1 0.060683 0.117389 0.420355
18 2 0.249957 0.236372 0.363269
46 1 0.269864 0.0262075 0.435087
19 2 0.422991 0.137065 0.492032
78 1 0.565855 0.136748 0.391129
51 2 0.742578 0.211377 0.453245
125 1 0.848305 0.0754237 0.405121
6 2 0.191551 0.446561 0.469175
22 1 0.111003 0.385413 0.309723
54 1 0.415923 0.329978 0.340382
87 2 0.787837 0.408645 0.345285
96 1 0.652274 0.435498 0.463134
2 2 0.973519 0.272083 0.359796
88 1 0.866814 0.338586 0.474326
83 2 0.00021568 0.14411 0.656678
126 1 0.108315 0.0213316 0.596866
3 2 0.278681 0.0377012 0.637995
52 2 0.526734 0.0146389 0.730175
56 1 0.594169 0.234708 0.579665
58 1 0.429524 0.140376 0.674879
89 2 0.718812 0.188961 0.715209
90 1 0.835748 0.125977 0.600889
32 1 0.159354 0.442376 0.662487
114 1 0.0421278 0.275409 0.573719
24 1 0.272252 0.294373 0.522743
25 2 0.280382 0.274029 0.721256
23 2 0.442958 0.374374 0.549383
27 2 0.566291 0.325665 0.744058
57 2 0.640888 0.435631 0.711461
98 1 0.80216 0.35683 0.701542
4 2 0.0493752 0.115787 0.997238
20 2 0.298971 0.0653533 0.911617
26 1 0.211142 0.117504 0.782865
28 1 0.326328 0.231828 0.980185
80 1 0.464745 0.0162307 0.886283
60 1 0.643963 0.220132 0.882014
69 2 0.719423 0.0685925 0.987102
112 1 0.762097 0.00879571 0.801396
84 2 0.861479 0.125146 0.950352
115 1 0.989493 0.116664 0.825023
7 2 0.074692 0.286805 0.870906
34 1 0.216595 0.381341 0.86639
66 1 0.418536 0.365512 0.814892
59 2 0.776137 0.391657 0.899581
99 2 0.886346 0.476286 0.874727
119 1 0.992603 0.39736 0.762753
120 1 0.999916 0.495214 0.994619
9 2 0.0472521 0.662151 0.0329172
36 1 0.129099 0.602076 0.189014
35 2 0.243728 0.619102 0.0514313
70 1 0.366218 0.695222 0.197102
61 2 0.539415 0.649652 0.0542285
94 1 0.698462 0.613015 0.131947
93 2 0.878652 0.694694 0.209804
108 1 0.875149 0.722901 0.0342433
13 2 0.0478643 0.938839 0.123299
48 1 0.177101 0.989366 0.0193046
37 2 0.284034 0.891835 0.110495
44 1 0.346645 0.77718 0.00496535
39 2 0.569484 0.907547 0.112007
102 1 0.7715 0.849629 0.208764
71 2 0.810335 0.91097 0.0503976
101 2 0.989504 0.876122 0.00134432
10 2 0.117279 0.693265 0.41362
118 1 0.0260641 0.518527 0.485628
29 2 0.240639 0.695021 0.310852
30 1 0.314705 0.560325 0.392147
62 1 0.525522 0.551065 0.317758
55 2 0.67526 0.628041 0.30133
95 2 0.901535 0.620248 0.439672
117 1 0.830584 0.561028 0.309671
121 1 0.0319123 0.782305 0.255003
38 1 0.220987 0.890906 0.280347
40 1 0.286075 0.783154 0.483724
33 2 0.469015 0.772549 0.474943
41 2 0.463513 0.996062 0.323401
72 1 0.509061 0.834744 0.292247
63 2 0.683455 0.761935 0.329663
82 2 0.662783 0.981557 0.336014
110 1 0.64563 0.85192 0.47159
103 2 0.908381 0.908214 0.306945
122 1 0.93756 0.789109 0.468329
11 2 0.0121139 0.552605 0.667456
123 1 0.108514 0.713619 0.653936
15 2 0.261733 0.589427 0.670817
31 2 0.343806 0.618563 0.560877
64 1 0.498381 0.541709 0.588863
65 2 0.598611 0.698239 0.696823
73 2 0.739183 0.719272 0.677457
104 1 0.796553 0.603684 0.55862
97 2 0.873772 0.530594 0.680046
105 2 0.0140227 0.878744 0.629663
47 1 0.295148 0.883296 0.710404
79 1 0.528189 0.836579 0.635959
111 1 0.827703 0.885417 0.613134
12 2 0.101179 0.519045 0.862533
107 2 0.0391922 0.659569 0.814491
8 2 0.218286 0.581814 0.914661
42 1 0.361234 0.613002 0.824422
67 2 0.473353 0.526509 0.940741
74 1 0.582185 0.720868 0.864288
100 1 0.651327 0.524162 0.855306
106 1 0.832819 0.630075 0.819924
16 2 0.159955 0.942748 0.820974
124 1 0.158027 0.757549 0.923946
43 2 0.427783 0.782839 0.863491
76 1 0.674179 0.894325 0.945209
75 2 0.814888 0.789603 0.883536
127 1 0.968553 0.893025 0.801719
ITEM: TIMESTEP
5
ITEM: NUMBER OF ATOMS
128
ITEM: BOX BOUNDS pp pp pp
-6.0000000000000000e+00 5.9723215200000004e+00
-6.0000000000000000e+00 5.9723215200000004e+00
-6.0000000000000000e+00 5.9723215200000004e+00
ITEM: ATOMS id type xs ys zs
116 1 0.104503 0.236081 0.132708
1 2 0.254988 0.128369 0.0998703
17 2 0.484942 0.151318 0.0236917
50 2 0.530281 0.236649 0.236941
77 1 0.414591 0.0155242 0.140292
109 1 0.643649 0.0993486 0.150608
81 2 0.828537 0.118132 0.223238
128 1 0.924545 0.0514495 0.0919823
91 2 0.0233579 0.321124 -0.00257006
21 2 0.258896 0.487859 0.223317
68 1 0.365784 0.468142 0.0699164
53 2 0.47899 0.433356 0.21503
49 2 0.687853 0.269709 0.0650415
85 2 0.689483 0.448916 0.0189361
86 1 0.65633 0.371165 0.212546
5 2 0.990014 0.490428 0.201954
92 1 0.856823 0.276253 0.0137579
113 1 0.897897 0.310633 0.212694
14 2 0.0616058 0.00604703 0.26306
45 1 0.0606822 0.117961 0.419955
18 2 0.249189 0.236157 0.361968
46 1 0.270742 0.0264357 0.43515
19 2 0.421992 0.138013 0.494049
78 1 0.566335 0.136785 0.391095
51 2 0.742979 0.211237 0.453636
125 1 0.848188 0.0750816 0.404887
6 2 0.19202 0.446927 0.468651
22 1 0.111135 0.38519 0.309851
54 1 0.415404 0.329954 0.341058
87 2 0.786804 0.408491 0.343866
96 1 0.65236 0.435382 0.46328
2 2 0.974976 0.271738 0.360782
88 1 0.866753 0.338619 0.474621
83 2 -0.000565733 0.14253 0.656516
126 1 0.107996 0.0212476 0.59731
3 2 0.278563 0.037415 0.638134
52 2 0.528898 0.0121808 0.730092
56 1 0.594274 0.235161 0.579287
58 1 0.428652 0.140898 0.674205
89 2 0.719056 0.189695 0.714676
90 1 0.836089 0.125681 0.600748
32 1 0.160094 0.442541 0.662474
114 1 0.0425359 0.275369 0.573476
24 1 0.272195 0.294454 0.523557
25 2 0.280892 0.274135 0.721199
23 2 0.442981 0.373154 0.548418
27 2 0.568405 0.32444 0.743622
57 2 0.640719 0.435875 0.711522
98 1 0.801985 0.356988 0.701436
4 2 0.0503613 0.115897 0.997066
20 2 0.300193 0.0666825 0.912685
26 1 0.210847 0.1179 0.782501
28 1 0.326635 0.231331 0.98054
80 1 0.464713 0.0159662 0.886946
60 1 0.643835 0.220332 0.882099
69 2 0.720034 0.0694301 0.986789
112 1 0.761825 0.00873037 0.801121
84 2 0.860589 0.124382 0.95056
115 1 0.989677 0.11681 0.82529
7 2 0.073266 0.286862 0.871604
34 1 0.21648 0.381513 0.865591
66 1 0.418008 0.365861 0.814921
59 2 0.776793 0.391688 0.898785
99 2 0.885694 0.47583 0.874632
119 1 0.992194 0.39731 0.763202
120 1 1.00005 0.495199 0.995135
9 2 0.0472482 0.661055 0.0334661
36 1 0.129179 0.602117 0.188733
35 2 0.244384 0.619044 0.0507139
70 1 0.366719 0.695279 0.196727
61 2 0.5386 0.649681 0.0534783
94 1 0.698522 0.612909 0.13181
93 2 0.878362 0.695885 0.20931
108 1 0.875392 0.723508 0.0344568
13 2 0.0476678 0.9381 0.122948
48 1 0.177218 0.989344 0.0187298
37 2 0.28437 0.893563 0.111105
44 1 0.347018 0.776733 0.00641024
39 2 0.569762 0.90781 0.112538
102 1 0.771354 0.849906 0.209089
71 2 0.812267 0.909966 0.051782
101 2 0.990082 0.875656 0.000574037
10 2 0.11696 0.693699 0.414182
118 1 0.0260334 0.518704 0.485884
29 2 0.240039 0.695038 0.310536
30 1 0.314593 0.559932 0.392396
62 1 0.52541 0.551427 0.318068
55 2 0.675729 0.629005 0.301162
95 2 0.902223 0.621097 0.440344
117 1 0.830765 0.560971 0.309568
121 1 0.0320401 0.782574 0.255109
38 1 0.220709 0.890444 0.279677
40 1 0.286083 0.78324 0.483947
33 2 0.467669 0.771678 0.473896
41 2 0.460931 0.997826 0.322708
72 1 0.509689 0.833611 0.292275
63 2 0.682468 0.760753 0.32861
82 2 0.663294 0.982267 0.335944
110 1 0.645983 0.852407 0.472266
103 2 0.908523 0.908338 0.30744
122 1 0.938211 0.78898 0.467845
11 2 0.0139576 0.552546 0.666421
123 1 0.10846 0.713395 0.653926
15 2 0.261499 0.589825 0.670858
31 2 0.343191 0.618764 0.560379
64 1 0.4987 0.542073 0.589326
65 2 0.599727 0.697625 0.696535
73 2 0.738976 0.719014 0.677383
104 1 0.795856 0.603703 0.558453
97 2 0.873447 0.529765 0.681427
105 2 0.0135854 0.877895 0.629013
47 1 0.295382 0.883076 0.710265
79 1 0.528028 0.837468 0.635844
111 1 0.827229 0.885619 0.613603
12 2 0.100382 0.519911 0.862548
107 2 0.0393917 0.659108 0.814489
8 2 0.218547 0.583132 0.915395
42 1 0.361286 0.613073 0.824249
67 2 0.473181 0.526697 0.940113
74 1 0.582022 0.721078 0.864558
100 1 0.65135 0.523525 0.855619
106 1 0.832921 0.630054 0.819385
16 2 0.15936 0.941624 0.822223
124 1 0.156721 0.757461 0.923862
43 2 0.427549 0.782756 0.86165
76 1 0.673836 0.89446 0.944786
75 2 0.815396 0.789678 0.882859
127 1 0.968381 0.893157 0.80188
ITEM: TIMESTEP
6
ITEM: NUMBER OF ATOMS
128
ITEM: BOX BOUNDS pp pp pp
-6.0000000000000000e+00 5.9723215200000004e+00
-6.0000000000000000e+00 5.9723215200000004e+00
-6.0000000000000000e+00 5.9723215200000004e+00
ITEM: ATOMS id type xs ys zs
116 1 0.104633 0.235915 0.132637
1 2 0.254658 0.128222 0.100087
17 2 0.484982 0.150561 0.0229236
50 2 0.531917 0.235843 0.236975
77 1 0.414438 0.0155627 0.140462
109 1 0.64386 0.0993934 0.150547
81 2 0.828623 0.118831 0.222972
128 1 0.923573 0.0512208 0.0921731
91 2 0.023591 0.32086 -0.0036028
21 2 0.258437 0.48802 0.223788
68 1 0.365714 0.468194 0.0704103
53 2 0.479893 0.432889 0.21342
49 2 0.687978 0.26973 0.0655135
85 2 0.688834 0.449123 0.0196372
86 1 0.655831 0.370967 0.212562
5 2 0.989507 0.489878 0.20202
92 1 0.856565 0.276475 0.0125981
113 1 0.897669 0.310834 0.213398
14 2 0.0617922 0.00571355 0.263517
45 1 0.0606936 0.118636 0.419497
18 2 0.248321 0.235927 0.360572
46 1 0.271767 0.0267191 0.435237
19 2 0.420792 0.139055 0.496205
78 1 0.566846 0.136841 0.391081
51 2 0.743442 0.211083 0.454097
125 1 0.848048 0.0746667 0.404616
6 2 0.192558 0.447339 0.468024
22 1 0.111295 0.384928 0.310005
54 1 0.414833 0.329946 0.34179
87 2 0.785603 0.408267 0.342232
96 1 0.65246 0.435241 0.463463
2 2 0.976665 0.271384 0.361883
88 1 0.866675 0.338672 0.474946
83 2 -0.0014685 0.140756 0.656297
126 1 0.107609 0.0211392 0.597825
3 2 0.278405 0.0370501 0.638304
52 2 0.531256 0.00955469 0.72989
56 1 0.594391 0.235686 0.578872
58 1 0.427742 0.141437 0.673471
89 2 0.719324 0.190532 0.71402
90 1 0.836496 0.12531 0.600567
32 1 0.160921 0.442682 0.662531
114 1 0.0430031 0.275288 0.573212
24 1 0.272132 0.294547 0.524467
25 2 0.28148 0.274213 0.721081
23 2 0.443004 0.371779 0.547329
27 2 0.570618 0.323079 0.743207
57 2 0.640541 0.436149 0.711574
98 1 0.801803 0.357172 0.701332
4 2 0.051461 0.115981 0.996936
20 2 0.30149 0.0682495 0.913868
26 1 0.210538 0.118341 0.782102
28 1 0.326999 0.230758 0.980963
80 1 0.46469 0.0156553 0.887713
60 1 0.643687 0.220562 0.882209
69 2 0.720763 0.0704046 0.986349
112 1 0.761535 0.00868977 0.800773
84 2 0.85955 0.123491 0.950827
115 1 0.989878 0.116985 0.825603
7 2 0.0716445 0.286938 0.872374
34 1 0.216332 0.381712 0.864646
66 1 0.417479 0.366251 0.814916
59 2 0.777457 0.391743 0.897864
99 2 0.885013 0.475342 0.874553
119 1 0.99177 0.397229 0.763677
120 1 1.00019 0.495164 0.995745
9 2 0.0472249 0.659795 0.0341103
36 1 0.129278 0.602166 0.188393
35 2 0.245273 0.618936 0.0500855
70 1 0.367299 0.695298 0.196356
61 2 0.537668 0.649705 0.0525922
94 1 0.698573 0.612789 0.13164
93 2 0.878001 0.697299 0.208753
108 1 0.875712 0.724231 0.0346879
13 2 0.047425 0.937243 0.122524
48 1 0.17737 0.989328 0.0180502
37 2 0.284791 0.895568 0.111824
44 1 0.34735 0.776253 0.00791309
39 2 0.570104 0.908143 0.113157
102 1 0.77119 0.850217 0.209504
71 2 0.814379 0.908781 0.0532725
101 2 0.990764 0.875057 -0.000321396
10 2 0.116598 0.694221 0.414882
118 1 0.02601 0.518921 0.486184
29 2 0.239322 0.695052 0.310116
30 1 0.314457 0.559457 0.392686
62 1 0.525284 0.551847 0.318419
55 2 0.67624 0.629886 0.300908
95 2 0.902974 0.622074 0.441093
117 1 0.831001 0.560932 0.30946
121 1 0.0321883 0.78289 0.255236
38 1 0.220397 0.889909 0.278892
40 1 0.286074 0.783333 0.484211
33 2 0.46628 0.770751 0.472757
41 2 0.458066 0.999639 0.321916
72 1 0.510395 0.83241 0.292323
63 2 0.681278 0.75969 0.327434
82 2 0.663905 0.983045 0.335867
110 1 0.646419 0.852954 0.472959
103 2 0.908682 0.908492 0.308025
122 1 0.938869 0.788865 0.467328
11 2 0.0158502 0.55256 0.665173
123 1 0.108404 0.71314 0.65393
15 2 0.261226 0.590314 0.670889
31 2 0.342478 0.618984 0.559807
64 1 0.499074 0.542484 0.589869
65 2 0.600959 0.696988 0.696177
73 2 0.738793 0.718703 0.677302
104 1 0.795053 0.603698 0.558288
97 2 0.873222 0.528901 0.682895